Siesta Version  : 5.0.0-alpha-10-g89f2f52d8-dirty
Architecture    : unknown
Compiler version: GNU Fortran (Ubuntu 9.3.0-17ubuntu1~20.04) 9.3.0
Compiler flags  : gfortran -O2 -fPIC -ftree-vectorize
PP flags        : -DFC_HAVE_ABORT -DSIESTA__DIAG_2STAGE -DSIESTA__MRRR
Libraries       : libsiestaLAPACK.a libsiestaBLAS.a
Directory       : /home/runner/work/ip/ip/ip
SERIAL version

* Running in serial mode
>> Start of run:  27-JUN-2021  15:49:18

                           ***********************       
                           *  WELCOME TO SIESTA  *       
                           ***********************       

reinit: Reading from standard input
reinit: Dumped input in INPUT_TMP.33484
************************** Dump of input data file ****************************
SystemName          iron porphyrin
SystemLabel         ip
# Species and atoms
 NumberOfAtoms          37
 NumberOfSpecies           4
 %block ChemicalSpeciesLabel
    1       7      N
    2       6      C
    3       1      H
    4      26      Fe2
 %endblock ChemicalSpeciesLabel
 # Basis
 PAO.BasisType         split
 PAO.BasisSize         DZP
 PAO.EnergyShift       50 meV
 LatticeConstant  1.000000  Ang
 AtomicCoordinatesFormat     Fractional
 %block LatticeVectors
   12.7312126160    0.0000000000    0.0000000000
    0.0000000000   12.7312126160    0.0000000000
    0.0000000000    0.0000000000   12.7312126160
 %endblock LatticeVectors
 %block AtomicCoordinatesAndAtomicSpecies
    0.5183603760    0.3417397440    0.4985649590    1
    0.4923353790    0.5001747610    0.3501061800    1
    0.5097091790    0.4997498390    0.6464495660    1
    0.5192401410    0.6580858830    0.4989733990    1
    0.5145021680    0.2750532630    0.4113305210    2
    0.4856400190    0.4133637250    0.2822375600    2
    0.5238830450    0.2749275570    0.5832529070    2
    0.4862518910    0.5871979000    0.2824519870    2
    0.4972909090    0.3081341390    0.3103016610    2
    0.5222147110    0.1662568750    0.4435646830    2
    0.4720702170    0.4462019210    0.1763552730    2
    0.5279674530    0.1661633850    0.5506197210    2
    0.4724582430    0.5547202830    0.1764895620    2
    0.5194026830    0.3082684580    0.6873050330    2
    0.4985798600    0.6922837500    0.3107760850    2
    0.5106611850    0.4117496010    0.7156228420    2
    0.5158821940    0.7250119450    0.4119015630    2
    0.5110036730    0.5875678660    0.7158522010    2
    0.5249913330    0.7246545550    0.5838388200    2
    0.5202195640    0.6910780670    0.6878022550    2
    0.5069584850    0.4460039730    0.8232787250    2
    0.5241563920    0.8336834910    0.4444208740    2
    0.5071579810    0.5530440810    0.8234193330    2
    0.5297175050    0.8334753510    0.5514868500    2
    0.4921680690    0.2497689430    0.2485416230    3
    0.5214449170    0.1000754540    0.3905665870    3
    0.4651415940    0.3939154740    0.1099680360    3
    0.5328326820    0.0999999940    0.6033821700    3
    0.4659050410    0.6072203520    0.1102335450    3
    0.5216633080    0.2496581970    0.7489330770    3
    0.4938788120    0.7508257030    0.2491511700    3
    0.5226992960    0.7495257260    0.7495763900    3
    0.5058494210    0.3933852610    0.8897515540    3
    0.5238366720    0.8999999760    0.3915885090    3
    0.5062460900    0.6054899690    0.8900319340    3
    0.5348584060    0.8994753360    0.6044284110    3
    0.5248350500    0.4999022190    0.4999128280    4
 %endblock AtomicCoordinatesAndAtomicSpecies
 %block kgrid_Monkhorst_Pack
   1   0   0    0.000000
   0   2   0    0.000000
   0   0   2    0.000000
 %endblock kgrid_Monkhorst_Pack
 SpinPolarized         .false.        # Logical parameters are: yes or no
 xc.functional         GGA            # Exchange-correlation functional
 xc.authors            PBE            # Exchange-correlation version
 SolutionMethod        diagon         # OrderN or Diagon
 MaxSCFIterations      300            # Maximum number of SCF iter
 DM.MixingWeight       0.02          # New DM amount for next SCF cycle
 DM.Tolerance          1.d-5          # Tolerance in maximum difference
 MeshCutoff            370.0 Ry       # Mesh cutoff. real space mesh
 DM.NumberPulay         4
 ElectronicTemperature  25 meV        # Temp. for Fermi smearing
 # MD options
 MD.TypeOfRun           cg            # Type of dynamics:
 MD.NumCGsteps          50           # Number of CG steps for
 MD.MaxCGDispl          0.1 Ang       # Maximum atomic displacement
 MD.MaxForceTol         0.04 eV/Ang   # Tolerance in the maximum
 # Output options
 WriteCoorInitial      .true.
 WriteEigenvalues      .true.
 # Options for saving/reading
 DM.UseSaveDM          .true.         # to use continuation files
 UseSaveData           .true.
	# -- SAVING WAVE/BAND/EIGEN/KPOINTS/ANIMATION INFORMATION --
WriteKbands            	T
WriteBands           	T
WriteCoorXmol 		T
WriteCoorStep       	T
WriteKpoints        	T
WriteCoorCerius		T
WriteHS             	T
WriteForces           	T
WriteMullikenPop	1
SaveHS			T
XML.Write              	T
BandLinesScale      ReciprocalLatticeVectors
%block BandLines
1  0.0000000000 0.0000000000 0.0000000000  \Gamma
10 0.0000000000 0.5000000000 0.0000000000  X
10 0.0000000000 0.0000000000 0.5000000000  Y
10 0.0000000000 0.0000000000 0.0000000000  \Gamma
10 0.5000000000 0.0000000000 0.0000000000  Z
10 0.5000000000 0.5000000000 0.5000000000  R
10 0.0000000000 0.0000000000 0.0000000000  \Gamma
10 0.5000000000 0.0000000000 0.5000000000  T
10 0.5000000000 0.5000000000 0.0000000000  U
10 0.0000000000 0.0000000000 0.0000000000  \Gamma
10 0.0000000000 0.5000000000 0.5000000000  V
10 0.0000000000 0.0000000000 0.0000000000  \Gamma
%endblock BandLines
************************** End of input data file *****************************

reinit: -----------------------------------------------------------------------
reinit: System Name: iron porphyrin
reinit: -----------------------------------------------------------------------
reinit: System Label: ip
reinit: -----------------------------------------------------------------------

initatom: Reading input for the pseudopotentials and atomic orbitals ----------
Species number:   1 Atomic number:    7 Label: N
Species number:   2 Atomic number:    6 Label: C
Species number:   3 Atomic number:    1 Label: H
Species number:   4 Atomic number:   26 Label: Fe2

Ground state valence configuration:   2s02  2p03
Reading pseudopotential information in formatted form from N.psf

Pseudopotential generated from a relativistic atomic calculation

Valence configuration for pseudopotential generation:
2s( 2.00) rc: 1.29
2p( 3.00) rc: 1.42
3d( 0.00) rc: 1.74
4f( 0.00) rc: 2.98
Ground state valence configuration:   2s02  2p02
Reading pseudopotential information in formatted form from C.psf

Pseudopotential generated from a relativistic atomic calculation

Valence configuration for pseudopotential generation:
2s( 2.00) rc: 1.84
2p( 2.00) rc: 1.62
3d( 0.00) rc: 1.64
4f( 0.00) rc: 1.64
Ground state valence configuration:   1s01
Reading pseudopotential information in formatted form from H.psf

Pseudopotential generated from a relativistic atomic calculation

Valence configuration for pseudopotential generation:
1s( 1.00) rc: 1.31
2p( 0.00) rc: 1.13
3d( 0.00) rc: 1.09
4f( 0.00) rc: 1.14
Ground state valence configuration:   4s02  3d06
Reading pseudopotential information in formatted form from Fe2.psf

Pseudopotential generated from a relativistic atomic calculation

Valence configuration for pseudopotential generation:
4s( 0.00) rc: 2.00
4p( 0.00) rc: 2.00
3d( 6.00) rc: 2.00
4f( 0.00) rc: 2.00
For N, standard SIESTA heuristics set lmxkb to 3
 (one more than the basis l, including polarization orbitals).
Use PS.lmax or PS.KBprojectors blocks to override.
For C, standard SIESTA heuristics set lmxkb to 3
 (one more than the basis l, including polarization orbitals).
Use PS.lmax or PS.KBprojectors blocks to override.
For H, standard SIESTA heuristics set lmxkb to 2
 (one more than the basis l, including polarization orbitals).
Use PS.lmax or PS.KBprojectors blocks to override.
For Fe2, standard SIESTA heuristics set lmxkb to 3
 (one more than the basis l, including polarization orbitals).
Use PS.lmax or PS.KBprojectors blocks to override.
Fe2: nkbl increased for l=1 due to the presence of a polarization orbital

<basis_specs>
===============================================================================
N                    Z=   7    Mass=  14.010        Charge= 0.17977+309
Lmxo=1 Lmxkb= 3    BasisType=split      Semic=F
L=0  Nsemic=0  Cnfigmx=2
          i=1  nzeta=2  polorb=0  (2s)
            splnorm:   0.15000    
               vcte:    0.0000    
               rinn:    0.0000    
               qcoe:    0.0000    
               qyuk:    0.0000    
               qwid:   0.10000E-01
                rcs:    0.0000      0.0000    
            lambdas:    1.0000      1.0000    
L=1  Nsemic=0  Cnfigmx=2
          i=1  nzeta=2  polorb=1  (2p)
            splnorm:   0.15000    
               vcte:    0.0000    
               rinn:    0.0000    
               qcoe:    0.0000    
               qyuk:    0.0000    
               qwid:   0.10000E-01
                rcs:    0.0000      0.0000    
            lambdas:    1.0000      1.0000    
-------------------------------------------------------------------------------
L=0  Nkbl=1  erefs: 0.17977+309
L=1  Nkbl=1  erefs: 0.17977+309
L=2  Nkbl=1  erefs: 0.17977+309
L=3  Nkbl=1  erefs: 0.17977+309
===============================================================================
</basis_specs>

atom: Called for N                     (Z =   7)

read_vps: Pseudopotential generation method:
read_vps: ATM4.1.0  Troullier-Martins                       
Valence charge for ps generation:    5.00000

read_vps: Pseudopotential includes a core correction:
read_vps: Pseudo-core for xc-correction

xc_check: Exchange-correlation functional:
xc_check: GGA Perdew, Burke & Ernzerhof 1996
V l=0 = -2*Zval/r beyond r=  1.3893
V l=1 = -2*Zval/r beyond r=  1.4068
V l=2 = -2*Zval/r beyond r=  1.7184
V l=3 = -2*Zval/r beyond r=  2.9051
All V_l potentials equal beyond r=  2.9051
This should be close to max(r_c) in ps generation
All pots = -2*Zval/r beyond r=  2.9051

VLOCAL1: 99.0% of the norm of Vloc inside      5.143 Ry
VLOCAL1: 99.9% of the norm of Vloc inside     11.722 Ry
atom: Maximum radius for 4*pi*r*r*local-pseudopot. charge    3.46076
atom: Maximum radius for r*vlocal+2*Zval:    3.05407

KBgen: Kleinman-Bylander projectors: 
GHOST: No ghost state for L =  0
   l= 0   rc=  3.016124   el= -1.364978   Ekb= -2.808808   kbcos= -0.742527
GHOST: No ghost state for L =  1
   l= 1   rc=  2.978652   el= -0.521172   Ekb= -8.658168   kbcos= -0.584939
GHOST: No ghost state for L =  2
   l= 2   rc=  3.333369   el=  0.001991   Ekb= -1.641438   kbcos= -0.029991
GHOST: No ghost state for L =  3
   l= 3   rc=  3.460758   el=  0.003093   Ekb= -0.279848   kbcos= -0.014018

KBgen: Total number of  Kleinman-Bylander projectors:   16
atom: -------------------------------------------------------------------------

atom: SANKEY-TYPE ORBITALS:
atom: Selected multiple-zeta basis: split     

SPLIT: Orbitals with angular momentum L= 0

SPLIT: Basis orbitals for state 2s

SPLIT: PAO cut-off radius determined from an
SPLIT: energy shift=  0.003675 Ry

   izeta = 1
                 lambda =    1.000000
                     rc =    4.388595
                 energy =   -1.361280
                kinetic =    1.182830
    potential(screened) =   -2.544110
       potential(ionic) =   -8.052211

   izeta = 2
                 rmatch =    2.941647
              splitnorm =    0.150000
                 energy =   -1.182724
                kinetic =    1.808505
    potential(screened) =   -2.991229
       potential(ionic) =   -8.894182

SPLIT: Orbitals with angular momentum L= 1

SPLIT: Basis orbitals for state 2p

SPLIT: PAO cut-off radius determined from an
SPLIT: energy shift=  0.003675 Ry

   izeta = 1
                 lambda =    1.000000
                     rc =    5.496027
                 energy =   -0.517594
                kinetic =    3.415465
    potential(screened) =   -3.933060
       potential(ionic) =   -9.235705

   izeta = 2
                 rmatch =    3.092486
              splitnorm =    0.150000
                 energy =   -0.339289
                kinetic =    5.055748
    potential(screened) =   -5.395036
       potential(ionic) =  -11.309880

POLgen: Perturbative polarization orbital with L=  2

POLgen: Polarization orbital for state 2p

   izeta = 1
                     rc =    5.496027
                 energy =    1.497544
                kinetic =    3.057213
    potential(screened) =   -1.559669
       potential(ionic) =   -5.761067
atom: Total number of Sankey-type orbitals: 13

atm_pop: Valence configuration (for local Pseudopot. screening):
 2s( 2.00)                                                            
 2p( 3.00)                                                            
Vna: chval, zval:    5.00000   5.00000

Vna:  Cut-off radius for the neutral-atom potential:   5.496027
comcore: Pseudo-core radius Rcore=  1.554824

atom: _________________________________________________________________________

<basis_specs>
===============================================================================
C                    Z=   6    Mass=  12.010        Charge= 0.17977+309
Lmxo=1 Lmxkb= 3    BasisType=split      Semic=F
L=0  Nsemic=0  Cnfigmx=2
          i=1  nzeta=2  polorb=0  (2s)
            splnorm:   0.15000    
               vcte:    0.0000    
               rinn:    0.0000    
               qcoe:    0.0000    
               qyuk:    0.0000    
               qwid:   0.10000E-01
                rcs:    0.0000      0.0000    
            lambdas:    1.0000      1.0000    
L=1  Nsemic=0  Cnfigmx=2
          i=1  nzeta=2  polorb=1  (2p)
            splnorm:   0.15000    
               vcte:    0.0000    
               rinn:    0.0000    
               qcoe:    0.0000    
               qyuk:    0.0000    
               qwid:   0.10000E-01
                rcs:    0.0000      0.0000    
            lambdas:    1.0000      1.0000    
-------------------------------------------------------------------------------
L=0  Nkbl=1  erefs: 0.17977+309
L=1  Nkbl=1  erefs: 0.17977+309
L=2  Nkbl=1  erefs: 0.17977+309
L=3  Nkbl=1  erefs: 0.17977+309
===============================================================================
</basis_specs>

atom: Called for C                     (Z =   6)

read_vps: Pseudopotential generation method:
read_vps: ATM3.3    Troullier-Martins                       
Valence charge for ps generation:    4.00000

xc_check: Exchange-correlation functional:
xc_check: GGA Perdew, Burke & Ernzerhof 1996
V l=0 = -2*Zval/r beyond r=  1.8140
V l=1 = -2*Zval/r beyond r=  1.7692
V l=2 = -2*Zval/r beyond r=  1.7692
V l=3 = -2*Zval/r beyond r=  1.7692
All V_l potentials equal beyond r=  1.8140
This should be close to max(r_c) in ps generation
All pots = -2*Zval/r beyond r=  1.8140

VLOCAL1: 99.0% of the norm of Vloc inside     13.192 Ry
VLOCAL1: 99.9% of the norm of Vloc inside     30.065 Ry
atom: Maximum radius for 4*pi*r*r*local-pseudopot. charge    2.16095
atom: Maximum radius for r*vlocal+2*Zval:    1.88329

KBgen: Kleinman-Bylander projectors: 
GHOST: No ghost state for L =  0
   l= 0   rc=  2.004780   el= -1.010207   Ekb=  2.995585   kbcos=  0.335322
GHOST: No ghost state for L =  1
   l= 1   rc=  1.979871   el= -0.388556   Ekb= -4.412411   kbcos= -0.405487
GHOST: No ghost state for L =  2
   l= 2   rc=  2.188140   el=  0.001971   Ekb= -1.183708   kbcos= -0.012464
GHOST: No ghost state for L =  3
   l= 3   rc=  2.479542   el=  0.003065   Ekb= -0.554381   kbcos= -0.001878

KBgen: Total number of  Kleinman-Bylander projectors:   16
atom: -------------------------------------------------------------------------

atom: SANKEY-TYPE ORBITALS:
atom: Selected multiple-zeta basis: split     

SPLIT: Orbitals with angular momentum L= 0

SPLIT: Basis orbitals for state 2s

SPLIT: PAO cut-off radius determined from an
SPLIT: energy shift=  0.003675 Ry

   izeta = 1
                 lambda =    1.000000
                     rc =    4.993604
                 energy =   -1.006386
                kinetic =    0.821009
    potential(screened) =   -1.827396
       potential(ionic) =   -5.411899

   izeta = 2
                 rmatch =    3.475094
              splitnorm =    0.150000
                 energy =   -0.870447
                kinetic =    1.260244
    potential(screened) =   -2.130691
       potential(ionic) =   -5.977467

SPLIT: Orbitals with angular momentum L= 1

SPLIT: Basis orbitals for state 2p

SPLIT: PAO cut-off radius determined from an
SPLIT: energy shift=  0.003675 Ry

   izeta = 1
                 lambda =    1.000000
                     rc =    6.253707
                 energy =   -0.384900
                kinetic =    2.331510
    potential(screened) =   -2.716409
       potential(ionic) =   -6.135594

   izeta = 2
                 rmatch =    3.745781
              splitnorm =    0.150000
                 energy =   -0.256413
                kinetic =    3.469048
    potential(screened) =   -3.725462
       potential(ionic) =   -7.535472

POLgen: Perturbative polarization orbital with L=  2

POLgen: Polarization orbital for state 2p

   izeta = 1
                     rc =    6.253707
                 energy =    1.024133
                kinetic =    2.152420
    potential(screened) =   -1.128287
       potential(ionic) =   -3.877835
atom: Total number of Sankey-type orbitals: 13

atm_pop: Valence configuration (for local Pseudopot. screening):
 2s( 2.00)                                                            
 2p( 2.00)                                                            
Vna: chval, zval:    4.00000   4.00000

Vna:  Cut-off radius for the neutral-atom potential:   6.253707

atom: _________________________________________________________________________

<basis_specs>
===============================================================================
H                    Z=   1    Mass=  1.0100        Charge= 0.17977+309
Lmxo=0 Lmxkb= 2    BasisType=split      Semic=F
L=0  Nsemic=0  Cnfigmx=1
          i=1  nzeta=2  polorb=1  (1s)
            splnorm:   0.15000    
               vcte:    0.0000    
               rinn:    0.0000    
               qcoe:    0.0000    
               qyuk:    0.0000    
               qwid:   0.10000E-01
                rcs:    0.0000      0.0000    
            lambdas:    1.0000      1.0000    
-------------------------------------------------------------------------------
L=0  Nkbl=1  erefs: 0.17977+309
L=1  Nkbl=1  erefs: 0.17977+309
L=2  Nkbl=1  erefs: 0.17977+309
===============================================================================
</basis_specs>

atom: Called for H                     (Z =   1)

read_vps: Pseudopotential generation method:
read_vps: ATM4.1.0  Troullier-Martins                       
Valence charge for ps generation:    1.00000

xc_check: Exchange-correlation functional:
xc_check: GGA Perdew, Burke & Ernzerhof 1996
V l=0 = -2*Zval/r beyond r=  1.2977
V l=1 = -2*Zval/r beyond r=  1.2656
V l=2 = -2*Zval/r beyond r=  1.2656
All V_l potentials equal beyond r=  1.2977
This should be close to max(r_c) in ps generation
All pots = -2*Zval/r beyond r=  1.2977

VLOCAL1: 99.0% of the norm of Vloc inside     25.776 Ry
VLOCAL1: 99.9% of the norm of Vloc inside     58.745 Ry
atom: Maximum radius for 4*pi*r*r*local-pseudopot. charge    1.52711
atom: Maximum radius for r*vlocal+2*Zval:    1.28155

KBgen: Kleinman-Bylander projectors: 
GHOST: No ghost state for L =  0
   l= 0   rc=  1.452513   el= -0.477183   Ekb= -1.957529   kbcos= -0.361582
GHOST: No ghost state for L =  1
   l= 1   rc=  1.730774   el=  0.001076   Ekb= -0.628875   kbcos= -0.020986
GHOST: No ghost state for L =  2
   l= 2   rc=  2.011274   el=  0.002010   Ekb= -0.258614   kbcos= -0.002433

KBgen: Total number of  Kleinman-Bylander projectors:    9
atom: -------------------------------------------------------------------------

atom: SANKEY-TYPE ORBITALS:
atom: Selected multiple-zeta basis: split     

SPLIT: Orbitals with angular momentum L= 0

SPLIT: Basis orbitals for state 1s

SPLIT: PAO cut-off radius determined from an
SPLIT: energy shift=  0.003675 Ry

   izeta = 1
                 lambda =    1.000000
                     rc =    6.047169
                 energy =   -0.473707
                kinetic =    0.890783
    potential(screened) =   -1.364491
       potential(ionic) =   -1.884975

   izeta = 2
                 rmatch =    4.052721
              splitnorm =    0.150000
                 energy =   -0.382777
                kinetic =    1.427749
    potential(screened) =   -1.810526
       potential(ionic) =   -2.357421

POLgen: Perturbative polarization orbital with L=  1

POLgen: Polarization orbital for state 1s

   izeta = 1
                     rc =    6.047169
                 energy =    0.568234
                kinetic =    1.185253
    potential(screened) =   -0.617020
       potential(ionic) =   -1.087179
atom: Total number of Sankey-type orbitals:  5

atm_pop: Valence configuration (for local Pseudopot. screening):
 1s( 1.00)                                                            
Vna: chval, zval:    1.00000   1.00000

Vna:  Cut-off radius for the neutral-atom potential:   6.047169

atom: _________________________________________________________________________

<basis_specs>
===============================================================================
Fe2                  Z=  26    Mass=  55.850        Charge= 0.17977+309
Lmxo=2 Lmxkb= 3    BasisType=split      Semic=F
L=0  Nsemic=0  Cnfigmx=4
          i=1  nzeta=2  polorb=1  (4s)
            splnorm:   0.15000    
               vcte:    0.0000    
               rinn:    0.0000    
               qcoe:    0.0000    
               qyuk:    0.0000    
               qwid:   0.10000E-01
                rcs:    0.0000      0.0000    
            lambdas:    1.0000      1.0000    
L=1  Nsemic=0  Cnfigmx=4
L=2  Nsemic=0  Cnfigmx=3
          i=1  nzeta=2  polorb=0  (3d)
            splnorm:   0.15000    
               vcte:    0.0000    
               rinn:    0.0000    
               qcoe:    0.0000    
               qyuk:    0.0000    
               qwid:   0.10000E-01
                rcs:    0.0000      0.0000    
            lambdas:    1.0000      1.0000    
-------------------------------------------------------------------------------
L=0  Nkbl=1  erefs: 0.17977+309
L=1  Nkbl=2  erefs: 0.17977+309 0.17977+309
L=2  Nkbl=1  erefs: 0.17977+309
L=3  Nkbl=1  erefs: 0.17977+309
===============================================================================
</basis_specs>

atom: Called for Fe2                   (Z =  26)

read_vps: Pseudopotential generation method:
read_vps: ATM4.2.7  Troullier-Martins                       
Valence charge for ps generation:    6.00000

read_vps: Pseudopotential includes a core correction:
read_vps: Pseudo-core for xc-correction

atom: Pseudopotential generated from an ionic configuration
atom: with net charge 2.00

xc_check: Exchange-correlation functional:
xc_check: GGA Perdew, Burke & Ernzerhof 1996
V l=0 = -2*Zval/r beyond r=  2.7302
V l=1 = -2*Zval/r beyond r=  2.7302
V l=2 = -2*Zval/r beyond r=  2.7302
V l=3 = -2*Zval/r beyond r=  2.7302
All V_l potentials equal beyond r=  1.9726
This should be close to max(r_c) in ps generation
All pots = -2*Zval/r beyond r=  2.7302
Using large-core scheme for Vlocal

atom: Estimated core radius    2.73018
atom: Maximum radius for 4*pi*r*r*local-pseudopot. charge    3.01733
atom: Maximum radius for r*vlocal+2*Zval:    2.76453

KBgen: Kleinman-Bylander projectors: 
GHOST: No ghost state for L =  0
   l= 0   rc=  2.047986   el= -1.482689   Ekb=  4.473766   kbcos=  0.320130
   l= 1   rc=  2.047986   el= -1.050151   Ekb=  2.808993   kbcos=  0.303763
   l= 1   rc=  2.047986   el= -0.425295   Ekb=  1.996072   kbcos=  0.016093
GHOST: No ghost state for L =  2
   l= 2   rc=  2.022544   el= -1.890984   Ekb=-12.596121   kbcos= -0.696221
GHOST: No ghost state for L =  3
   l= 3   rc=  2.047986   el= -0.275065   Ekb= -1.954499   kbcos= -0.028175
KBgen: More than one KB projector for some l shell(s)
KBgen: ghost-state analysis will not be performed

KBgen: Total number of  Kleinman-Bylander projectors:   19
atom: -------------------------------------------------------------------------

atom: SANKEY-TYPE ORBITALS:
atom: Selected multiple-zeta basis: split     

atom: basis set generated from the ionic configuration used
atom: to generate the pseudopotential

SPLIT: Orbitals with angular momentum L= 0

SPLIT: Basis orbitals for state 4s

SPLIT: PAO cut-off radius determined from an
SPLIT: energy shift=  0.003675 Ry

   izeta = 1
                 lambda =    1.000000
                     rc =    6.308440
                 energy =   -1.479221
                kinetic =    0.442339
    potential(screened) =   -1.921560
       potential(ionic) =   -6.621686

   izeta = 2
                 rmatch =    5.037372
              splitnorm =    0.150000
                 energy =   -1.401872
                kinetic =    0.694761
    potential(screened) =   -2.096634
       potential(ionic) =   -7.083320

SPLIT: Orbitals with angular momentum L= 2

SPLIT: Basis orbitals for state 3d

SPLIT: PAO cut-off radius determined from an
SPLIT: energy shift=  0.003675 Ry

   izeta = 1
                 lambda =    1.000000
                     rc =    4.228642
                 energy =   -1.887728
                kinetic =    9.621385
    potential(screened) =  -11.509113
       potential(ionic) =  -19.015244

   izeta = 2
                 rmatch =    2.099834
              splitnorm =    0.150000
                 energy =   -1.426594
                kinetic =   13.244057
    potential(screened) =  -14.670651
       potential(ionic) =  -22.733758

POLgen: Perturbative polarization orbital with L=  1

POLgen: Polarization orbital for state 4s

   izeta = 1
                     rc =    6.308440
                 energy =   -1.063676
                kinetic =    0.818583
    potential(screened) =   -1.882259
       potential(ionic) =   -6.291436
atom: Total number of Sankey-type orbitals: 15

atm_pop: Valence configuration (for local Pseudopot. screening):
 4s( 2.00)                                                            
 4p( 0.00)                                                            
 3d( 6.00)                                                            
Vna: chval, zval:    8.00000   8.00000

Vna:  Cut-off radius for the neutral-atom potential:   6.308440
comcore: Pseudo-core radius Rcore=  3.685395

atom: _________________________________________________________________________

prinput: Basis input ----------------------------------------------------------

PAO.BasisType split     

%block ChemicalSpeciesLabel
    1    7 N                       # Species index, atomic number, species label
    2    6 C                       # Species index, atomic number, species label
    3    1 H                       # Species index, atomic number, species label
    4   26 Fe2                     # Species index, atomic number, species label
%endblock ChemicalSpeciesLabel

%block PAO.Basis                 # Define Basis set
N                     2                    # Species label, number of l-shells
 n=2   0   2                         # n, l, Nzeta 
   4.389      2.942   
   1.000      1.000   
 n=2   1   2 P   1                   # n, l, Nzeta, Polarization, NzetaPol
   5.496      3.092   
   1.000      1.000   
C                     2                    # Species label, number of l-shells
 n=2   0   2                         # n, l, Nzeta 
   4.994      3.475   
   1.000      1.000   
 n=2   1   2 P   1                   # n, l, Nzeta, Polarization, NzetaPol
   6.254      3.746   
   1.000      1.000   
H                     1                    # Species label, number of l-shells
 n=1   0   2 P   1                   # n, l, Nzeta, Polarization, NzetaPol
   6.047      4.053   
   1.000      1.000   
Fe2                   2   2.000            # Label, l-shells, ionic net charge
 n=4   0   2 P   1                   # n, l, Nzeta, Polarization, NzetaPol
   6.308      5.037   
   1.000      1.000   
 n=3   2   2                         # n, l, Nzeta 
   4.229      2.100   
   1.000      1.000   
%endblock PAO.Basis

prinput: ----------------------------------------------------------------------

coor:   Atomic-coordinates input format  =     Fractional

siesta: Atomic coordinates (Bohr) and species
siesta:     12.47098   8.22175  11.99473  1        1
siesta:     11.84486  12.03346   8.42303  1        2
siesta:     12.26285  12.02324  15.55262  1        3
siesta:     12.49215  15.83257  12.00456  1        4
siesta:     12.37816   6.61737   9.89600  2        5
siesta:     11.68378   9.94492   6.79022  2        6
siesta:     12.60385   6.61435  14.03220  2        7
siesta:     11.69850  14.12711   6.79538  2        8
siesta:     11.96408   7.41325   7.46540  2        9
siesta:     12.56371   3.99989  10.67151  2       10
siesta:     11.35731  10.73496   4.24285  2       11
siesta:     12.70211   3.99764  13.24709  2       12
siesta:     11.36664  13.34575   4.24608  2       13
siesta:     12.49606   7.41648  16.53554  2       14
siesta:     11.99509  16.65532   7.47681  2       15
siesta:     12.28575   9.90608  17.21682  2       16
siesta:     12.41136  17.44271   9.90974  2       17
siesta:     12.29399  14.13601  17.22234  2       18
siesta:     12.63051  17.43411  14.04629  2       19
siesta:     12.51571  16.62631  16.54750  2       20
siesta:     12.19667  10.73019  19.80686  2       21
siesta:     12.61042  20.05719  10.69211  2       22
siesta:     12.20147  13.30542  19.81025  2       23
siesta:     12.74422  20.05218  13.26795  2       24
siesta:     11.84083   6.00907   5.97954  3       25
siesta:     12.54519   2.40767   9.39645  3       26
siesta:     11.19062   9.47702   2.64567  3       27
siesta:     12.81916   2.40585  14.51648  3       28
siesta:     11.20898  14.60882   2.65206  3       29
siesta:     12.55044   6.00641  18.01822  3       30
siesta:     11.88199  18.06375   5.99421  3       31
siesta:     12.57537  18.03248  18.03369  3       32
siesta:     12.16999   9.46427  21.40610  3       33
siesta:     12.60273  21.65266   9.42104  3       34
siesta:     12.17953  14.56719  21.41285  3       35
siesta:     12.86790  21.64004  14.54165  3       36
siesta:     12.62675  12.02690  12.02716  4       37

siesta: System type = slab      

initatomlists: Number of atoms, orbitals, and projectors:     37   387   511

coxmol: Writing XMOL coordinates into file ip.xyz                                                              

siesta: ******************** Simulation parameters ****************************
siesta:
siesta: The following are some of the parameters of the simulation.
siesta: A complete list of the parameters used, including default values,
siesta: can be found in file out.fdf
siesta:
redata: Spin configuration                          = none
redata: Number of spin components                   = 1
redata: Time-Reversal Symmetry                      = T
redata: Spin spiral                                 = F
redata: Long output                                 =   F
redata: Number of Atomic Species                    =        4
redata: Charge density info will appear in .RHO file
redata: Write Mulliken Pop.                         = Atomic and Orbital charges
redata: Matel table size (NRTAB)                    =     1024
redata: Mesh Cutoff                                 =   370.0000 Ry
redata: Net charge of the system                    =     0.0000 |e|
redata: Min. number of SCF Iter                     =        0
redata: Max. number of SCF Iter                     =      300
redata: SCF convergence failure will abort job
redata: SCF mix quantity                            = Hamiltonian
redata: Mix DM or H after convergence               =   F
redata: Recompute H after scf cycle                 =   F
redata: Mix DM in first SCF step                    =   T
redata: Write Pulay info on disk                    =   F
redata: New DM Occupancy tolerance                  = 0.000000000001
redata: No kicks to SCF
redata: DM Mixing Weight for Kicks                  =     0.5000
redata: Require Harris convergence for SCF          =   F
redata: Harris energy tolerance for SCF             =     0.000100 eV
redata: Require DM convergence for SCF              =   T
redata: DM tolerance for SCF                        =     0.000010
redata: Require EDM convergence for SCF             =   F
redata: EDM tolerance for SCF                       =     0.001000 eV
redata: Require H convergence for SCF               =   T
redata: Hamiltonian tolerance for SCF               =     0.001000 eV
redata: Require (free) Energy convergence for SCF   =   F
redata: (free) Energy tolerance for SCF             =     0.000100 eV
redata: Using Saved Data (generic)                  =   T
redata: Use continuation files for DM               =   T
redata: Neglect nonoverlap interactions             =   F
redata: Method of Calculation                       = Diagonalization
redata: Electronic Temperature                      =   290.1109 K
redata: Fix the spin of the system                  =   F
redata: Max. number of TDED Iter                    =        1
redata: Number of TDED substeps                     =        3
redata: Dynamics option                             = CG coord. optimization
redata: Variable cell                               =   F
redata: Use continuation files for CG               =   T
redata: Max atomic displ per move                   =     0.1000 Ang
redata: Maximum number of optimization moves        =       50
redata: Force tolerance                             =     0.0400 eV/Ang
mix.SCF: Pulay mixing                            = Pulay
mix.SCF:    Variant                              = stable
mix.SCF:    History steps                        = 4
mix.SCF:    Linear mixing weight                 =     0.020000
mix.SCF:    Mixing weight                        =     0.020000
mix.SCF:    SVD condition                        = 0.1000E-07
redata: ***********************************************************************

%block SCF.Mixers
  Pulay
%endblock SCF.Mixers

%block SCF.Mixer.Pulay
  # Mixing method
  method pulay
  variant stable

  # Mixing options
  weight 0.0200
  weight.linear 0.0200
  history 4
%endblock SCF.Mixer.Pulay

DM_history_depth set to one: no extrapolation allowed by default for geometry relaxation
Size of DM history Fstack: 1
Total number of electrons:   120.000000
Total ionic charge:   120.000000
k-point displ. along   2 input, could be:     0.00    0.50
k-point displ. along   3 input, could be:     0.00    0.50
 Kpoints in:            4 . Kpoints trimmed:            4

siesta: k-point coordinates (Bohr**-1) and weights:
siesta:          1  0.000000E+00  0.000000E+00  0.000000E+00   0.250000E+00
siesta:          2  0.000000E+00  0.130581E+00  0.000000E+00   0.250000E+00
siesta:          3  0.000000E+00  0.000000E+00  0.130581E+00   0.250000E+00
siesta:          4  0.000000E+00  0.130581E+00  0.130581E+00   0.250000E+00

siesta: k-grid: Number of k-points =         4
siesta: k-points from Monkhorst-Pack grid
siesta: k-cutoff (effective) =     6.366 Ang
siesta: k-point supercell and displacements
siesta: k-grid:    1   0   0      0.000
siesta: k-grid:    0   2   0      0.000
siesta: k-grid:    0   0   2      0.000

diag: Algorithm                                     = D&C
diag: Used triangular part                          = Lower
diag: Absolute tolerance                            =  0.100E-15
diag: Orthogonalization factor                      =  0.100E-05
diag: Memory factor                                 =  1.0000
Using current reciprocal lattice vectors for BandLinesScale
Beware any cell changes by the end of the run
Using current reciprocal lattice vectors for BandLinesScale
Beware any cell changes by the end of the run

superc: Internal auxiliary supercell:     1 x     3 x     3  =       9
superc: Number of atoms, orbitals, and projectors:    333   3483   4599


ts: **************************************************************
ts: Save H and S matrices                           =    F
ts: Save DM and EDM matrices                        =    F
ts: Only save the overlap matrix S                  =    F
ts: **************************************************************

************************ Begin: TS CHECKS AND WARNINGS ************************
************************ End: TS CHECKS AND WARNINGS **************************


                     ====================================
                        Begin CG opt. move =      0
                     ====================================

outcoor: Atomic coordinates (fractional):                   
    0.51836038    0.34173974    0.49856496   1       1  N
    0.49233538    0.50017476    0.35010618   1       2  N
    0.50970918    0.49974984    0.64644957   1       3  N
    0.51924014    0.65808588    0.49897340   1       4  N
    0.51450217    0.27505326    0.41133052   2       5  C
    0.48564002    0.41336373    0.28223756   2       6  C
    0.52388305    0.27492756    0.58325291   2       7  C
    0.48625189    0.58719790    0.28245199   2       8  C
    0.49729091    0.30813414    0.31030166   2       9  C
    0.52221471    0.16625687    0.44356468   2      10  C
    0.47207022    0.44620192    0.17635527   2      11  C
    0.52796745    0.16616338    0.55061972   2      12  C
    0.47245824    0.55472028    0.17648956   2      13  C
    0.51940268    0.30826846    0.68730503   2      14  C
    0.49857986    0.69228375    0.31077608   2      15  C
    0.51066119    0.41174960    0.71562284   2      16  C
    0.51588219    0.72501195    0.41190156   2      17  C
    0.51100367    0.58756787    0.71585220   2      18  C
    0.52499133    0.72465455    0.58383882   2      19  C
    0.52021956    0.69107807    0.68780226   2      20  C
    0.50695848    0.44600397    0.82327872   2      21  C
    0.52415639    0.83368349    0.44442087   2      22  C
    0.50715798    0.55304408    0.82341933   2      23  C
    0.52971751    0.83347535    0.55148685   2      24  C
    0.49216807    0.24976894    0.24854162   3      25  H
    0.52144492    0.10007545    0.39056659   3      26  H
    0.46514159    0.39391547    0.10996804   3      27  H
    0.53283268    0.09999999    0.60338217   3      28  H
    0.46590504    0.60722035    0.11023355   3      29  H
    0.52166331    0.24965820    0.74893308   3      30  H
    0.49387881    0.75082570    0.24915117   3      31  H
    0.52269930    0.74952573    0.74957639   3      32  H
    0.50584942    0.39338526    0.88975155   3      33  H
    0.52383667    0.89999998    0.39158851   3      34  H
    0.50624609    0.60548997    0.89003193   3      35  H
    0.53485841    0.89947534    0.60442841   3      36  H
    0.52483505    0.49990222    0.49991283   4      37  Fe2

superc: Internal auxiliary supercell:     1 x     3 x     3  =       9
superc: Number of atoms, orbitals, and projectors:    333   3483   4599

outcell: Unit cell vectors (Ang):
       12.731213    0.000000    0.000000
        0.000000   12.731213    0.000000
        0.000000    0.000000   12.731213

outcell: Cell vector modules (Ang)   :   12.731213   12.731213   12.731213
outcell: Cell angles (23,13,12) (deg):     90.0000     90.0000     90.0000
outcell: Cell volume (Ang**3)        :   2063.5230
<dSpData1D:S at geom step 0
  <sparsity:sparsity for geom step 0
    nrows_g=387 nrows=387 sparsity=1.0883 nnzs=162989, refcount: 7>
  <dData1D:(new from dSpData1D) n=162989, refcount: 1>
refcount: 1>
new_DM -- step:     1
Initializing Density Matrix...

Attempting to read DM from file... Succeeded...
DM from file:
<dSpData2D:IO-DM: ip.DM
  <sparsity:IO-DM: ip.DM
    nrows_g=387 nrows=387 sparsity=1.0883 nnzs=162989, refcount: 1>
  <dData2D:(new from dSpData2D) n=162989 m=1, refcount: 1>
refcount: 1>
DM to be used:
<dSpData2D:Re-structured SpM
  <sparsity:sparsity for geom step 0
    nrows_g=387 nrows=387 sparsity=1.0883 nnzs=162989, refcount: 8>
  <dData2D:(new in restruct) n=162989 m=1, refcount: 1>
refcount: 1>
No. of atoms with KB's overlaping orbs in proc 0. Max # of overlaps:      53     275

InitMesh: MESH = 150 x 150 x 150 = 3375000
InitMesh: Mesh cutoff (required, used) =   370.000   383.658 Ry
New grid distribution [1]: sub = 2

stepf: Fermi-Dirac step function

siesta: Program's energy decomposition (eV):
siesta: Ebs     =     -1503.289689
siesta: Eions   =      6065.232289
siesta: Ena     =       701.455086
siesta: Ekin    =      3866.316210
siesta: Enl     =     -1843.694477
siesta: Eso     =         0.000000
siesta: Edftu   =         0.000000
siesta: DEna    =       -93.073679
siesta: DUscf   =        15.626674
siesta: DUext   =         0.000000
siesta: Ex      =     -1601.594307
siesta: Ec      =      -143.861975
siesta: Exc     =     -1745.456282
siesta: eta*DQ  =         0.000000
siesta: Emadel  =         0.000000
siesta: Emeta   =         0.000000
siesta: Emolmec =         0.000000
siesta: Ekinion =         0.000000
siesta: Eharris =     -5164.058734
siesta: Etot    =     -5164.058755
siesta: FreeEng =     -5164.150902

        iscf     Eharris(eV)        E_KS(eV)     FreeEng(eV)     dDmax    Ef(eV) dHmax(eV)
   scf:    1    -5164.058734    -5164.058755    -5164.150902  0.000668 -4.472746  0.003269
timer: Routine,Calls,Time,% = IterSCF        1      10.134  10.30
   scf:    2    -5164.058767    -5164.058761    -5164.150902  0.000177 -4.472782  0.001592
   scf:    3    -5164.058776    -5164.058769    -5164.150902  0.000224 -4.472813  0.000648
   scf:    4    -5164.058780    -5164.058774    -5164.150902  0.000178 -4.472775  0.000216
   scf:    5    -5164.058774    -5164.058774    -5164.150902  0.000108 -4.472758  0.000061
   scf:    6    -5164.058774    -5164.058774    -5164.150902  0.000002 -4.472759  0.000052

SCF Convergence by DM+H criterion
max |DM_out - DM_in|         :     0.0000021954
max |H_out - H_in|      (eV) :     0.0000518544
SCF cycle converged after 6 iterations

Using DM_out to compute the final energy and forces
No. of atoms with KB's overlaping orbs in proc 0. Max # of overlaps:      53     275

siesta: E_KS(eV) =            -5164.0588

siesta: E_KS - E_eggbox =     -5164.0588

siesta: Atomic forces (eV/Ang):
     1    0.261929    2.331916   -0.469603
     2    0.734902   -0.002510    1.281644
     3    0.609587    0.000622    0.028613
     4    0.249249   -2.328457   -0.476130
     5    0.037319   -0.955701    0.005383
     6   -0.034691   -0.599241   -0.343450
     7    0.097199   -1.049927    1.133708
     8   -0.031007    0.598992   -0.341835
     9   -0.046564    0.452809   -0.318414
    10   -0.014348    0.431044   -0.034655
    11   -0.062297    0.614916   -0.137443
    12   -0.011063    0.410920    0.008520
    13   -0.066232   -0.614687   -0.138960
    14    0.036308   -0.503594   -0.482452
    15   -0.048882   -0.453030   -0.319275
    16   -0.117741    0.701660    0.692844
    17    0.043339    0.956463    0.006139
    18   -0.120690   -0.703484    0.692563
    19    0.101109    1.046651    1.135841
    20    0.038516    0.506489   -0.482616
    21   -0.018427   -0.161587   -0.341770
    22   -0.017451   -0.431810   -0.034465
    23   -0.018341    0.164111   -0.341186
    24   -0.013625   -0.410433    0.006424
    25   -0.027568   -0.449586   -0.490017
    26   -0.014224   -0.590707   -0.480629
    27   -0.087873   -0.473572   -0.600952
    28    0.044163   -0.600180    0.479954
    29   -0.084426    0.475791   -0.599292
    30    0.022852   -0.471704    0.493819
    31   -0.024091    0.451210   -0.488768
    32    0.024591    0.470244    0.494913
    33   -0.006664   -0.473006    0.623228
    34   -0.008312    0.592542   -0.479354
    35   -0.004998    0.471042    0.624899
    36    0.048247    0.598119    0.481621
    37   -1.447724    0.005622   -0.797740
----------------------------------------
   Tot    0.022072    0.007944   -0.008894
----------------------------------------
   Max    2.331916
   Res    0.571502    sqrt( Sum f_i^2 / 3N )
----------------------------------------
   Max    2.331916    constrained

Stress tensor Voigt[x,y,z,yz,xz,xy] (kbar):        0.08      -11.84      -18.95        0.02       -1.05       -0.03
(Free)E + p*V (eV/cell)    -5150.9713
Target enthalpy (eV/cell)    -5164.1509

mulliken: Atomic and Orbital Populations:

Species: N                   
Atom  Qatom  Qorb
               2s      2s      2py     2pz     2px     2py     2pz     2px     
               3Pdxy   3Pdyz   3Pdz2   3Pdxz   3Pdx2-y2
   1  5.053   0.768   0.549   0.787   0.496   1.224   0.437   0.570   0.102
              0.021   0.043   0.023   0.025   0.008
   2  5.065   0.777   0.548   0.534   0.764   1.244   0.536   0.448   0.098
              0.026   0.044   0.016   0.017   0.015
   3  5.043   0.760   0.563   0.560   0.664   1.275   0.511   0.513   0.077
              0.025   0.046   0.015   0.018   0.015
   4  5.053   0.768   0.549   0.786   0.496   1.225   0.437   0.570   0.102
              0.021   0.043   0.023   0.025   0.008

Species: C                   
Atom  Qatom  Qorb
               2s      2s      2py     2pz     2px     2py     2pz     2px     
               3Pdxy   3Pdyz   3Pdz2   3Pdxz   3Pdx2-y2
   5  3.995   0.319   0.598   0.597   0.690   0.578   0.353   0.267   0.342
              0.048   0.064   0.056   0.056   0.028
   6  3.996   0.312   0.601   0.679   0.600   0.583   0.272   0.357   0.337
              0.056   0.064   0.058   0.048   0.027
   7  4.006   0.336   0.588   0.608   0.700   0.570   0.347   0.262   0.341
              0.049   0.063   0.057   0.058   0.027
   8  3.996   0.313   0.601   0.678   0.600   0.583   0.273   0.358   0.337
              0.056   0.064   0.058   0.048   0.027
   9  3.795   0.100   0.723   0.363   0.342   0.648   0.588   0.606   0.289
              0.028   0.047   0.023   0.026   0.013
  10  3.788   0.154   0.683   0.293   0.368   0.684   0.628   0.583   0.258
              0.019   0.047   0.029   0.031   0.010
  11  3.788   0.155   0.682   0.370   0.301   0.679   0.576   0.626   0.262
              0.032   0.046   0.024   0.019   0.016
  12  3.790   0.153   0.683   0.293   0.369   0.686   0.629   0.583   0.260
              0.019   0.047   0.029   0.031   0.010
  13  3.788   0.155   0.682   0.369   0.302   0.679   0.578   0.625   0.262
              0.032   0.046   0.024   0.019   0.016
  14  3.800   0.100   0.720   0.370   0.331   0.660   0.586   0.612   0.287
              0.028   0.047   0.022   0.027   0.012
  15  3.795   0.100   0.722   0.362   0.343   0.649   0.589   0.605   0.289
              0.028   0.047   0.023   0.026   0.013
  16  3.986   0.305   0.606   0.669   0.591   0.583   0.282   0.363   0.334
              0.057   0.065   0.057   0.047   0.027
  17  3.995   0.319   0.598   0.598   0.690   0.578   0.353   0.268   0.342
              0.048   0.064   0.056   0.056   0.028
  18  3.986   0.305   0.606   0.669   0.590   0.584   0.282   0.363   0.334
              0.057   0.065   0.057   0.047   0.027
  19  4.006   0.336   0.588   0.608   0.699   0.570   0.347   0.262   0.341
              0.049   0.063   0.057   0.058   0.027
  20  3.800   0.100   0.720   0.372   0.329   0.660   0.585   0.613   0.287
              0.028   0.047   0.022   0.027   0.012
  21  3.784   0.155   0.683   0.369   0.294   0.672   0.582   0.630   0.263
              0.032   0.047   0.024   0.019   0.015
  22  3.788   0.154   0.683   0.291   0.369   0.684   0.629   0.582   0.258
              0.019   0.047   0.029   0.031   0.010
  23  3.784   0.155   0.683   0.370   0.292   0.672   0.580   0.631   0.263
              0.032   0.047   0.024   0.019   0.015
  24  3.790   0.153   0.683   0.294   0.367   0.685   0.627   0.584   0.260
              0.019   0.047   0.029   0.031   0.010

Species: H                   
Atom  Qatom  Qorb
               1s      1s      2Ppy    2Ppz    2Ppx    
  25  1.238   0.806   0.328   0.032   0.034   0.037
  26  1.256   0.818   0.324   0.042   0.032   0.040
  27  1.256   0.818   0.325   0.032   0.041   0.040
  28  1.257   0.819   0.324   0.042   0.032   0.041
  29  1.256   0.818   0.325   0.032   0.041   0.040
  30  1.240   0.808   0.326   0.032   0.034   0.039
  31  1.238   0.806   0.328   0.032   0.034   0.037
  32  1.240   0.808   0.326   0.032   0.034   0.039
  33  1.254   0.816   0.326   0.032   0.041   0.040
  34  1.256   0.817   0.325   0.042   0.032   0.040
  35  1.254   0.815   0.326   0.032   0.041   0.040
  36  1.257   0.819   0.324   0.042   0.032   0.041

Species: Fe2                 
Atom  Qatom  Qorb
               4s      4s      3dxy    3dyz    3dz2    3dxz    3dx2-y2 3dxy    
               3dyz    3dz2    3dxz    3dx2-y2 4Ppy    4Ppz    4Ppx    
  37  7.329   0.704   0.009   1.394   1.947   0.910   1.096   1.199  -0.063
             -0.067  -0.042  -0.044  -0.044   0.114   0.132   0.084

mulliken: Qtot =      120.000

iocg: Reading CG continuation file

                     ====================================
                        Begin CG opt. move =      1
                     ====================================

outcoor: Atomic coordinates (fractional):                   
    0.51660801    0.34318223    0.49854298   1       1  N
    0.49314023    0.50016408    0.34742909   1       2  N
    0.51039201    0.49975068    0.64795047   1       3  N
    0.51747367    0.65668520    0.49893892   1       4  N
    0.51317359    0.27513613    0.41089400   2       5  C
    0.48605910    0.41265793    0.28040199   2       6  C
    0.52262615    0.27605994    0.58391634   2       7  C
    0.48667607    0.58790256    0.28062339   2       8  C
    0.49805174    0.30798236    0.30982507   2       9  C
    0.52233409    0.16733350    0.44259207   2      10  C
    0.47291137    0.44669487    0.17388144   2      11  C
    0.52814522    0.16677355    0.55105118   2      12  C
    0.47329888    0.55423148    0.17401437   2      13  C
    0.52013907    0.30794294    0.68763452   2      14  C
    0.49933226    0.69242472    0.31032620   2      15  C
    0.51101281    0.41260387    0.71697736   2      16  C
    0.51454631    0.72492323    0.41146772   2      17  C
    0.51135020    0.58672522    0.71720763   2      18  C
    0.52373272    0.72354029    0.58449394   2      19  C
    0.52096004    0.69140051    0.68813921   2      20  C
    0.50808844    0.44680371    0.82536232   2      21  C
    0.52428042    0.83258543    0.44344537   2      22  C
    0.50828886    0.55222813    0.82550028   2      23  C
    0.52990307    0.83285817    0.55191308   2      24  C
    0.49249032    0.25024044    0.24925187   3      25  H
    0.52161034    0.10024318    0.39113761   3      26  H
    0.46372729    0.39491669    0.10798171   3      27  H
    0.53337535    0.10004801    0.60317683   3      28  H
    0.46448093    0.60622270    0.10823122   3      29  H
    0.52157160    0.24944951    0.74863260   3      30  H
    0.49419372    0.75033617    0.24986746   3      31  H
    0.52261014    0.74974555    0.74928014   3      32  H
    0.50526938    0.39365417    0.89278754   3      33  H
    0.52402863    0.89980999    0.39216244   3      34  H
    0.50566516    0.60523185    0.89306117   3      35  H
    0.53542696    0.89942476    0.60422441   3      36  H
    0.52560765    0.49990214    0.50118895   4      37  Fe2

superc: Internal auxiliary supercell:     1 x     3 x     3  =       9
superc: Number of atoms, orbitals, and projectors:    333   3483   4599

outcell: Unit cell vectors (Ang):
       12.731213    0.000000    0.000000
        0.000000   12.731213    0.000000
        0.000000    0.000000   12.731213

outcell: Cell vector modules (Ang)   :   12.731213   12.731213   12.731213
outcell: Cell angles (23,13,12) (deg):     90.0000     90.0000     90.0000
outcell: Cell volume (Ang**3)        :   2063.5230
<dSpData1D:S at geom step 1
  <sparsity:sparsity for geom step 1
    nrows_g=387 nrows=387 sparsity=1.0873 nnzs=162849, refcount: 7>
  <dData1D:(new from dSpData1D) n=162849, refcount: 1>
refcount: 1>
new_DM -- step:     2
Re-using DM from previous geometries...
Number of DMs in history: 1
 DM extrapolation coefficients: 
1   1.00000
New DM after history re-use:
<dSpData2D:SpM extrapolated using coords
  <sparsity:sparsity for geom step 1
    nrows_g=387 nrows=387 sparsity=1.0873 nnzs=162849, refcount: 9>
  <dData2D:(temp array for extrapolation) n=162849 m=1, refcount: 1>
refcount: 1>
No. of atoms with KB's overlaping orbs in proc 0. Max # of overlaps:      53     271

InitMesh: MESH = 150 x 150 x 150 = 3375000
InitMesh: Mesh cutoff (required, used) =   370.000   383.658 Ry
New grid distribution [1]: sub = 2

        iscf     Eharris(eV)        E_KS(eV)     FreeEng(eV)     dDmax    Ef(eV) dHmax(eV)
   scf:    1    -5163.582102    -5163.776235    -5163.859929  0.512067 -4.526965  0.920129
   scf:    2    -5158.882773    -5162.559672    -5162.562249  1.294550 -4.169902  2.789870
   scf:    3    -5164.427998    -5163.831615    -5163.899935  0.534560 -4.462995  0.752574
   scf:    4    -5163.769125    -5163.801185    -5163.865994  0.037718 -4.457439  0.902862
   scf:    5    -5163.836658    -5163.819193    -5163.885864  0.013527 -4.466354  0.956760
   scf:    6    -5163.239999    -5163.864789    -5163.951371  0.786396 -4.541960  1.736186
   scf:    7    -5161.967006    -5163.072945    -5163.110001  0.519678 -4.586837  3.874941
   scf:    8    -5163.632795    -5163.999078    -5164.086070  1.089288 -4.495112  0.473864
   scf:    9    -5163.800196    -5163.986138    -5164.079136  0.404719 -4.508169  0.588147
   scf:   10    -5164.047193    -5164.030885    -5164.125632  0.159488 -4.490945  0.315844
   scf:   11    -5164.041515    -5164.038432    -5164.132514  0.055683 -4.495816  0.059903
   scf:   12    -5164.039102    -5164.038814    -5164.132756  0.007802 -4.496661  0.030743
   scf:   13    -5164.039328    -5164.039147    -5164.133087  0.009304 -4.497113  0.018759
   scf:   14    -5164.039279    -5164.039215    -5164.133129  0.001406 -4.497226  0.017404
   scf:   15    -5164.039387    -5164.039377    -5164.133214  0.009700 -4.497086  0.008887
   scf:   16    -5164.039408    -5164.039393    -5164.133230  0.001094 -4.497063  0.008165
   scf:   17    -5164.039402    -5164.039426    -5164.133261  0.007427 -4.497001  0.003963
   scf:   18    -5164.039433    -5164.039430    -5164.133266  0.000451 -4.497064  0.003702
   scf:   19    -5164.039430    -5164.039431    -5164.133272  0.001195 -4.497120  0.003224
   scf:   20    -5164.039415    -5164.039424    -5164.133275  0.000997 -4.497133  0.002376
   scf:   21    -5164.039417    -5164.039421    -5164.133275  0.000964 -4.497163  0.001650
   scf:   22    -5164.039420    -5164.039421    -5164.133275  0.000336 -4.497186  0.001629
   scf:   23    -5164.039426    -5164.039425    -5164.133277  0.001446 -4.497292  0.000793
   scf:   24    -5164.039424    -5164.039424    -5164.133277  0.000086 -4.497292  0.000724
   scf:   25    -5164.039419    -5164.039422    -5164.133277  0.000132 -4.497287  0.000544
   scf:   26    -5164.039422    -5164.039422    -5164.133277  0.000371 -4.497303  0.000603
   scf:   27    -5164.039423    -5164.039423    -5164.133277  0.000030 -4.497306  0.000557
   scf:   28    -5164.039426    -5164.039424    -5164.133277  0.000137 -4.497304  0.000300
   scf:   29    -5164.039423    -5164.039424    -5164.133277  0.000029 -4.497297  0.000306
   scf:   30    -5164.039423    -5164.039423    -5164.133277  0.000029 -4.497290  0.000289
   scf:   31    -5164.039424    -5164.039423    -5164.133277  0.000114 -4.497283  0.000217
   scf:   32    -5164.039424    -5164.039424    -5164.133277  0.000023 -4.497278  0.000186
   scf:   33    -5164.039425    -5164.039424    -5164.133277  0.000034 -4.497268  0.000122
   scf:   34    -5164.039423    -5164.039424    -5164.133277  0.000020 -4.497260  0.000096
   scf:   35    -5164.039424    -5164.039424    -5164.133277  0.000007 -4.497258  0.000091

SCF Convergence by DM+H criterion
max |DM_out - DM_in|         :     0.0000070429
max |H_out - H_in|      (eV) :     0.0000905001
SCF cycle converged after 35 iterations

Using DM_out to compute the final energy and forces
No. of atoms with KB's overlaping orbs in proc 0. Max # of overlaps:      53     271

siesta: E_KS(eV) =            -5164.0394

siesta: Atomic forces (eV/Ang):
     1    0.299874    1.691424   -0.409824
     2    0.777562    0.000315    1.747901
     3    0.580376    0.000943    0.001533
     4    0.289819   -1.710426   -0.405579
     5    0.171434   -0.393711    0.452078
     6    0.048882   -0.031820   -0.480318
     7    0.222221   -1.435455    0.365014
     8    0.047681    0.028763   -0.478630
     9   -0.181847    0.920184   -0.262641
    10   -0.013179    0.195228    1.065041
    11   -0.065184    0.097198    0.304027
    12   -0.116628    0.752945   -0.714391
    13   -0.066337   -0.100614    0.303960
    14   -0.187254    0.680453   -0.038797
    15   -0.189247   -0.923244   -0.284924
    16    0.044755   -0.400320    0.719197
    17    0.175654    0.405799    0.458149
    18    0.046544    0.387797    0.721872
    19    0.228443    1.428451    0.376933
    20   -0.189853   -0.667979   -0.047861
    21   -0.093098   -1.584985   -0.169754
    22   -0.016687   -0.189295    1.062588
    23   -0.088366    1.595384   -0.164189
    24   -0.118707   -0.742508   -0.713891
    25   -0.031341   -0.905316   -0.933896
    26   -0.002071   -0.633594   -0.615522
    27   -0.090651   -0.618511   -0.804442
    28    0.054037   -0.558970    0.472774
    29   -0.086187    0.621907   -0.801027
    30    0.066032   -0.660460    0.672096
    31   -0.024362    0.906139   -0.928105
    32    0.068591    0.656556    0.672425
    33    0.034572   -0.182236    0.188302
    34    0.004171    0.634785   -0.614180
    35    0.035579    0.176364    0.186243
    36    0.057701    0.554261    0.471329
    37   -1.673081    0.007173   -1.408339
----------------------------------------
   Tot    0.019847    0.002624   -0.034848
----------------------------------------
   Max    1.747901
   Res    0.636085    sqrt( Sum f_i^2 / 3N )
----------------------------------------
   Max    1.747901    constrained

Stress tensor Voigt[x,y,z,yz,xz,xy] (kbar):        0.16      -11.98      -16.15        0.02       -0.91       -0.03
(Free)E + p*V (eV/cell)    -5152.1260
Target enthalpy (eV/cell)    -5164.1333

mulliken: Atomic and Orbital Populations:

Species: N                   
Atom  Qatom  Qorb
               2s      2s      2py     2pz     2px     2py     2pz     2px     
               3Pdxy   3Pdyz   3Pdz2   3Pdxz   3Pdx2-y2
   1  5.065   0.787   0.540   0.781   0.518   1.244   0.437   0.549   0.092
              0.020   0.043   0.022   0.025   0.008
   2  5.078   0.802   0.531   0.528   0.819   1.241   0.538   0.409   0.095
              0.026   0.042   0.017   0.016   0.015
   3  5.026   0.741   0.573   0.548   0.646   1.255   0.525   0.528   0.089
              0.025   0.047   0.015   0.019   0.015
   4  5.064   0.787   0.540   0.781   0.517   1.245   0.437   0.550   0.091
              0.020   0.043   0.022   0.025   0.008

Species: C                   
Atom  Qatom  Qorb
               2s      2s      2py     2pz     2px     2py     2pz     2px     
               3Pdxy   3Pdyz   3Pdz2   3Pdxz   3Pdx2-y2
   5  3.987   0.309   0.602   0.595   0.678   0.576   0.356   0.275   0.344
              0.048   0.065   0.056   0.056   0.027
   6  3.993   0.320   0.600   0.677   0.593   0.587   0.273   0.358   0.334
              0.056   0.063   0.057   0.047   0.027
   7  4.005   0.330   0.592   0.606   0.697   0.571   0.349   0.265   0.340
              0.049   0.063   0.057   0.059   0.028
   8  3.993   0.320   0.600   0.677   0.593   0.587   0.273   0.359   0.334
              0.056   0.063   0.056   0.047   0.027
   9  3.792   0.086   0.727   0.358   0.342   0.643   0.595   0.612   0.294
              0.028   0.047   0.023   0.026   0.012
  10  3.789   0.153   0.686   0.283   0.377   0.685   0.639   0.573   0.257
              0.020   0.046   0.029   0.030   0.011
  11  3.786   0.148   0.685   0.370   0.295   0.675   0.580   0.629   0.267
              0.032   0.046   0.024   0.019   0.016
  12  3.787   0.163   0.684   0.290   0.370   0.693   0.628   0.576   0.251
              0.019   0.045   0.029   0.030   0.010
  13  3.786   0.148   0.685   0.369   0.296   0.676   0.581   0.628   0.266
              0.032   0.046   0.024   0.019   0.016
  14  3.799   0.098   0.722   0.357   0.336   0.661   0.594   0.612   0.284
              0.027   0.047   0.022   0.027   0.011
  15  3.793   0.086   0.727   0.356   0.343   0.644   0.596   0.611   0.293
              0.028   0.047   0.023   0.026   0.012
  16  3.989   0.323   0.599   0.661   0.593   0.592   0.284   0.359   0.327
              0.057   0.063   0.058   0.046   0.026
  17  3.988   0.309   0.602   0.595   0.678   0.576   0.356   0.275   0.344
              0.048   0.065   0.056   0.056   0.028
  18  3.989   0.322   0.599   0.662   0.593   0.592   0.284   0.359   0.327
              0.057   0.063   0.058   0.046   0.026
  19  4.005   0.330   0.592   0.606   0.697   0.571   0.349   0.265   0.340
              0.049   0.064   0.057   0.059   0.028
  20  3.799   0.098   0.722   0.359   0.334   0.661   0.593   0.613   0.284
              0.027   0.047   0.022   0.027   0.012
  21  3.791   0.164   0.675   0.382   0.294   0.668   0.575   0.625   0.268
              0.033   0.047   0.024   0.019   0.015
  22  3.788   0.152   0.686   0.282   0.378   0.685   0.640   0.572   0.257
              0.020   0.046   0.029   0.030   0.011
  23  3.791   0.164   0.675   0.383   0.293   0.668   0.574   0.626   0.268
              0.033   0.047   0.024   0.019   0.015
  24  3.788   0.163   0.684   0.292   0.369   0.693   0.627   0.577   0.251
              0.019   0.045   0.028   0.030   0.010

Species: H                   
Atom  Qatom  Qorb
               1s      1s      2Ppy    2Ppz    2Ppx    
  25  1.245   0.812   0.327   0.033   0.034   0.038
  26  1.256   0.817   0.325   0.042   0.032   0.041
  27  1.259   0.821   0.324   0.032   0.041   0.041
  28  1.255   0.816   0.325   0.042   0.032   0.041
  29  1.259   0.821   0.324   0.032   0.041   0.041
  30  1.242   0.810   0.327   0.032   0.034   0.039
  31  1.245   0.812   0.327   0.033   0.034   0.038
  32  1.242   0.809   0.327   0.032   0.034   0.039
  33  1.249   0.812   0.326   0.031   0.041   0.039
  34  1.256   0.816   0.325   0.042   0.031   0.041
  35  1.248   0.811   0.326   0.031   0.041   0.039
  36  1.255   0.816   0.324   0.042   0.032   0.041

Species: Fe2                 
Atom  Qatom  Qorb
               4s      4s      3dxy    3dyz    3dz2    3dxz    3dx2-y2 3dxy    
               3dyz    3dz2    3dxz    3dx2-y2 4Ppy    4Ppz    4Ppx    
  37  7.320   0.696   0.010   1.339   1.949   0.900   1.155   1.201  -0.059
             -0.067  -0.042  -0.046  -0.044   0.115   0.131   0.083

mulliken: Qtot =      120.000

                     ====================================
                        Begin CG opt. move =      2
                     ====================================

outcoor: Atomic coordinates (fractional):                   
    0.51759529    0.34236954    0.49855536   1       1  N
    0.49268678    0.50017010    0.34893735   1       2  N
    0.51000731    0.49975021    0.64710487   1       3  N
    0.51846889    0.65747434    0.49895834   1       4  N
    0.51392210    0.27508944    0.41113993   2       5  C
    0.48582299    0.41305557    0.28143614   2       6  C
    0.52333428    0.27542196    0.58354256   2       7  C
    0.48643709    0.58750556    0.28165361   2       8  C
    0.49762309    0.30806787    0.31009358   2       9  C
    0.52226683    0.16672694    0.44314004   2      10  C
    0.47243747    0.44641715    0.17527518   2      11  C
    0.52804507    0.16642979    0.55080810   2      12  C
    0.47282527    0.55450687    0.17540888   2      13  C
    0.51972419    0.30812634    0.68744889   2      14  C
    0.49890836    0.69234530    0.31057966   2      15  C
    0.51081471    0.41212258    0.71621423   2      16  C
    0.51529894    0.72497321    0.41171215   2      17  C
    0.51115497    0.58719996    0.71644399   2      18  C
    0.52444182    0.72416806    0.58412485   2      19  C
    0.52054286    0.69121885    0.68794937   2      20  C
    0.50745183    0.44635314    0.82418843   2      21  C
    0.52421054    0.83320407    0.44399496   2      22  C
    0.50765173    0.55268783    0.82432788   2      23  C
    0.52979852    0.83320589    0.55167294   2      24  C
    0.49230877    0.24997480    0.24885172   3      25  H
    0.52151714    0.10014868    0.39081590   3      26  H
    0.46452410    0.39435261    0.10910079   3      27  H
    0.53306961    0.10002096    0.60329252   3      28  H
    0.46528327    0.60678477    0.10935932   3      29  H
    0.52162327    0.24956708    0.74880189   3      30  H
    0.49401630    0.75061197    0.24946390   3      31  H
    0.52266037    0.74962170    0.74944705   3      32  H
    0.50559617    0.39350267    0.89107708   3      33  H
    0.52392048    0.89991703    0.39183909   3      34  H
    0.50599245    0.60537727    0.89135452   3      35  H
    0.53510664    0.89945326    0.60433935   3      36  H
    0.52517237    0.49990218    0.50046999   4      37  Fe2

superc: Internal auxiliary supercell:     1 x     3 x     3  =       9
superc: Number of atoms, orbitals, and projectors:    333   3483   4599

outcell: Unit cell vectors (Ang):
       12.731213    0.000000    0.000000
        0.000000   12.731213    0.000000
        0.000000    0.000000   12.731213

outcell: Cell vector modules (Ang)   :   12.731213   12.731213   12.731213
outcell: Cell angles (23,13,12) (deg):     90.0000     90.0000     90.0000
outcell: Cell volume (Ang**3)        :   2063.5230
<dSpData1D:S at geom step 2
  <sparsity:sparsity for geom step 2
    nrows_g=387 nrows=387 sparsity=1.0859 nnzs=162633, refcount: 7>
  <dData1D:(new from dSpData1D) n=162633, refcount: 1>
refcount: 1>
new_DM -- step:     3
Re-using DM from previous geometries...
Number of DMs in history: 1
 DM extrapolation coefficients: 
1   1.00000
New DM after history re-use:
<dSpData2D:SpM extrapolated using coords
  <sparsity:sparsity for geom step 2
    nrows_g=387 nrows=387 sparsity=1.0859 nnzs=162633, refcount: 9>
  <dData2D:(temp array for extrapolation) n=162633 m=1, refcount: 1>
refcount: 1>
No. of atoms with KB's overlaping orbs in proc 0. Max # of overlaps:      53     271

InitMesh: MESH = 150 x 150 x 150 = 3375000
InitMesh: Mesh cutoff (required, used) =   370.000   383.658 Ry
New grid distribution [1]: sub = 2

        iscf     Eharris(eV)        E_KS(eV)     FreeEng(eV)     dDmax    Ef(eV) dHmax(eV)
   scf:    1    -5163.679339    -5164.018185    -5164.100197  0.263488 -4.463417  0.413752
   scf:    2    -5160.033239    -5162.858354    -5162.881952  1.297415 -4.344115  1.676593
   scf:    3    -5164.305909    -5164.002411    -5164.097140  0.928323 -4.455649  1.315292
   scf:    4    -5163.959981    -5163.981826    -5164.076171  0.029426 -4.452755  1.471882
   scf:    5    -5163.295889    -5163.900696    -5163.979107  0.499819 -4.548978  2.557955
   scf:    6    -5163.857939    -5164.048500    -5164.143398  0.404898 -4.473203  0.660310
   scf:    7    -5164.087686    -5164.075316    -5164.169418  0.077317 -4.490397  0.161927
   scf:    8    -5164.084545    -5164.080885    -5164.174378  0.042802 -4.488243  0.093985
   scf:    9    -5164.082810    -5164.082611    -5164.175361  0.038236 -4.484442  0.022937
   scf:   10    -5164.082636    -5164.082677    -5164.175481  0.001889 -4.483349  0.043320
   scf:   11    -5164.082206    -5164.082528    -5164.175590  0.012941 -4.484951  0.013559
   scf:   12    -5164.082561    -5164.082544    -5164.175597  0.000372 -4.485033  0.013105
   scf:   13    -5164.082672    -5164.082611    -5164.175617  0.001818 -4.485137  0.009608
   scf:   14    -5164.082731    -5164.082676    -5164.175630  0.002894 -4.485007  0.005593
   scf:   15    -5164.082653    -5164.082665    -5164.175634  0.000708 -4.485052  0.005626
   scf:   16    -5164.082601    -5164.082634    -5164.175638  0.001669 -4.485136  0.006398
   scf:   17    -5164.082662    -5164.082649    -5164.175642  0.000558 -4.485035  0.003381
   scf:   18    -5164.082652    -5164.082651    -5164.175643  0.000115 -4.485004  0.002524
   scf:   19    -5164.082648    -5164.082650    -5164.175643  0.000147 -4.484936  0.001407
   scf:   20    -5164.082645    -5164.082647    -5164.175644  0.000194 -4.484945  0.001007
   scf:   21    -5164.082652    -5164.082650    -5164.175644  0.000083 -4.484944  0.000855
   scf:   22    -5164.082670    -5164.082660    -5164.175644  0.000477 -4.484910  0.000961
   scf:   23    -5164.082662    -5164.082661    -5164.175644  0.000076 -4.484903  0.000962
   scf:   24    -5164.082662    -5164.082662    -5164.175644  0.000053 -4.484903  0.000803
   scf:   25    -5164.082662    -5164.082662    -5164.175644  0.000050 -4.484922  0.000629
   scf:   26    -5164.082661    -5164.082662    -5164.175645  0.000008 -4.484924  0.000535

SCF Convergence by DM+H criterion
max |DM_out - DM_in|         :     0.0000075429
max |H_out - H_in|      (eV) :     0.0005346225
SCF cycle converged after 26 iterations

Using DM_out to compute the final energy and forces
No. of atoms with KB's overlaping orbs in proc 0. Max # of overlaps:      53     271

siesta: E_KS(eV) =            -5164.0827

siesta: Atomic forces (eV/Ang):
     1    0.278401    2.049062   -0.445441
     2    0.756255   -0.000276    1.493157
     3    0.596618   -0.000520    0.016135
     4    0.266881   -2.053618   -0.448691
     5    0.098266   -0.710065    0.209632
     6    0.001500   -0.348826   -0.405309
     7    0.152804   -1.218322    0.793567
     8    0.003147    0.346417   -0.403038
     9   -0.107732    0.651999   -0.300089
    10   -0.014121    0.332253    0.456738
    11   -0.064014    0.395188    0.059626
    12   -0.056804    0.560639   -0.317433
    13   -0.066718   -0.396604    0.059024
    14   -0.063951    0.022728   -0.286554
    15   -0.112284   -0.653295   -0.310316
    16   -0.046235    0.216335    0.702354
    17    0.103174    0.715665    0.210471
    18   -0.047106   -0.221468    0.703594
    19    0.157577    1.211437    0.802246
    20   -0.063817   -0.015563   -0.291175
    21   -0.048334   -0.771846   -0.265801
    22   -0.017365   -0.329881    0.455697
    23   -0.046385    0.777528   -0.262589
    24   -0.059138   -0.555757   -0.318438
    25   -0.028254   -0.643657   -0.679740
    26   -0.008919   -0.610303   -0.540958
    27   -0.087926   -0.538644   -0.691697
    28    0.048519   -0.582403    0.476892
    29   -0.083907    0.541636   -0.689354
    30    0.042281   -0.553316    0.571205
    31   -0.023310    0.644964   -0.676585
    32    0.044379    0.550825    0.572010
    33    0.009034   -0.343657    0.430206
    34   -0.002831    0.611672   -0.539507
    35    0.010393    0.340120    0.430409
    36    0.052437    0.579248    0.477158
    37   -1.547937    0.006852   -1.081094
----------------------------------------
   Tot    0.024580    0.006547   -0.033686
----------------------------------------
   Max    2.053618
   Res    0.559616    sqrt( Sum f_i^2 / 3N )
----------------------------------------
   Max    2.053618    constrained

Stress tensor Voigt[x,y,z,yz,xz,xy] (kbar):        0.12      -11.85      -17.65        0.01       -0.97       -0.03
(Free)E + p*V (eV/cell)    -5151.5628
Target enthalpy (eV/cell)    -5164.1756

mulliken: Atomic and Orbital Populations:

Species: N                   
Atom  Qatom  Qorb
               2s      2s      2py     2pz     2px     2py     2pz     2px     
               3Pdxy   3Pdyz   3Pdz2   3Pdxz   3Pdx2-y2
   1  5.058   0.777   0.545   0.784   0.506   1.233   0.437   0.561   0.097
              0.020   0.043   0.023   0.025   0.008
   2  5.071   0.788   0.540   0.531   0.788   1.243   0.537   0.431   0.096
              0.026   0.043   0.016   0.017   0.015
   3  5.035   0.751   0.567   0.555   0.656   1.267   0.517   0.520   0.082
              0.025   0.046   0.015   0.019   0.015
   4  5.058   0.776   0.545   0.784   0.505   1.233   0.437   0.561   0.097
              0.020   0.043   0.023   0.025   0.008

Species: C                   
Atom  Qatom  Qorb
               2s      2s      2py     2pz     2px     2py     2pz     2px     
               3Pdxy   3Pdyz   3Pdz2   3Pdxz   3Pdx2-y2
   5  3.992   0.315   0.600   0.596   0.685   0.577   0.354   0.270   0.343
              0.048   0.065   0.056   0.056   0.028
   6  3.995   0.316   0.601   0.678   0.597   0.585   0.272   0.358   0.336
              0.056   0.064   0.057   0.048   0.027
   7  4.006   0.334   0.590   0.607   0.698   0.570   0.348   0.263   0.340
              0.049   0.063   0.057   0.058   0.027
   8  3.995   0.316   0.601   0.678   0.597   0.585   0.273   0.358   0.336
              0.056   0.064   0.057   0.048   0.027
   9  3.794   0.094   0.725   0.361   0.342   0.646   0.591   0.608   0.291
              0.028   0.047   0.023   0.026   0.013
  10  3.788   0.153   0.685   0.289   0.372   0.685   0.633   0.578   0.257
              0.020   0.046   0.029   0.031   0.010
  11  3.787   0.151   0.684   0.370   0.298   0.677   0.578   0.627   0.264
              0.032   0.046   0.024   0.019   0.016
  12  3.789   0.157   0.683   0.292   0.369   0.689   0.629   0.580   0.256
              0.019   0.046   0.029   0.030   0.010
  13  3.787   0.151   0.684   0.369   0.299   0.678   0.579   0.626   0.264
              0.032   0.046   0.024   0.019   0.016
  14  3.799   0.099   0.721   0.365   0.333   0.661   0.589   0.612   0.285
              0.028   0.047   0.022   0.027   0.012
  15  3.794   0.094   0.725   0.359   0.343   0.646   0.592   0.607   0.291
              0.028   0.047   0.023   0.026   0.013
  16  3.987   0.313   0.603   0.665   0.592   0.587   0.283   0.361   0.331
              0.057   0.064   0.058   0.046   0.026
  17  3.992   0.315   0.600   0.597   0.685   0.577   0.354   0.271   0.343
              0.048   0.065   0.056   0.056   0.028
  18  3.987   0.313   0.603   0.666   0.591   0.587   0.283   0.361   0.331
              0.057   0.064   0.058   0.046   0.026
  19  4.006   0.334   0.590   0.607   0.698   0.570   0.348   0.263   0.340
              0.049   0.063   0.057   0.058   0.028
  20  3.799   0.099   0.721   0.366   0.331   0.660   0.588   0.613   0.286
              0.028   0.047   0.022   0.027   0.012
  21  3.787   0.159   0.679   0.375   0.294   0.670   0.579   0.628   0.265
              0.032   0.047   0.024   0.019   0.015
  22  3.788   0.153   0.685   0.287   0.373   0.685   0.634   0.577   0.257
              0.019   0.046   0.029   0.031   0.010
  23  3.787   0.159   0.680   0.376   0.293   0.670   0.578   0.629   0.265
              0.032   0.047   0.024   0.019   0.015
  24  3.789   0.157   0.683   0.293   0.368   0.689   0.627   0.581   0.256
              0.019   0.046   0.029   0.030   0.010

Species: H                   
Atom  Qatom  Qorb
               1s      1s      2Ppy    2Ppz    2Ppx    
  25  1.241   0.808   0.328   0.032   0.034   0.038
  26  1.256   0.817   0.325   0.042   0.032   0.041
  27  1.257   0.819   0.324   0.032   0.041   0.041
  28  1.256   0.817   0.324   0.042   0.032   0.041
  29  1.257   0.819   0.324   0.032   0.041   0.041
  30  1.241   0.809   0.327   0.032   0.034   0.039
  31  1.241   0.808   0.328   0.032   0.034   0.038
  32  1.241   0.809   0.327   0.032   0.034   0.039
  33  1.252   0.814   0.326   0.032   0.041   0.039
  34  1.256   0.817   0.325   0.042   0.032   0.041
  35  1.252   0.814   0.326   0.032   0.041   0.039
  36  1.256   0.817   0.324   0.042   0.032   0.041

Species: Fe2                 
Atom  Qatom  Qorb
               4s      4s      3dxy    3dyz    3dz2    3dxz    3dx2-y2 3dxy    
               3dyz    3dz2    3dxz    3dx2-y2 4Ppy    4Ppz    4Ppx    
  37  7.324   0.700   0.010   1.370   1.948   0.906   1.122   1.200  -0.061
             -0.067  -0.042  -0.045  -0.044   0.114   0.131   0.083

mulliken: Qtot =      120.000

cgvc: Finished line minimization   10.  Mean atomic displacement =    0.0731

                     ====================================
                        Begin CG opt. move =      3
                     ====================================

outcoor: Atomic coordinates (fractional):                   
    0.51698532    0.34920195    0.49730030   1       1  N
    0.49542357    0.50016089    0.35097263   1       2  N
    0.51220419    0.49974943    0.64833470   1       3  N
    0.51781577    0.65066226    0.49768438   1       4  N
    0.51314620    0.27318187    0.41137778   2       5  C
    0.48615804    0.41152907    0.27886073   2       6  C
    0.52276652    0.27293076    0.58627137   2       7  C
    0.48678073    0.58902446    0.27909001   2       8  C
    0.49792444    0.30975968    0.30888347   2       9  C
    0.52232185    0.16850016    0.44364124   2      10  C
    0.47292371    0.44790442    0.17348771   2      11  C
    0.52802759    0.16846933    0.55026672   2      12  C
    0.47330359    0.55301894    0.17361866   2      13  C
    0.52012789    0.30793249    0.68691280   2      14  C
    0.49919040    0.69064135    0.30936222   2      15  C
    0.51096385    0.41339815    0.71923523   2      16  C
    0.51453090    0.72689172    0.41195444   2      17  C
    0.51129767    0.58591930    0.71946915   2      18  C
    0.52388596    0.72665443    0.58687121   2      19  C
    0.52095016    0.69143018    0.68740634   2      20  C
    0.50820966    0.44483989    0.82509493   2      21  C
    0.52426022    0.83142051    0.44449098   2      22  C
    0.50841569    0.55420407    0.82524120   2      23  C
    0.52978071    0.83117438    0.55112465   2      24  C
    0.49248469    0.24855859    0.24752374   3      25  H
    0.52162297    0.09858532    0.38976363   3      26  H
    0.46316317    0.39364641    0.10561059   3      27  H
    0.53363287    0.09844060    0.60445550   3      28  H
    0.46392575    0.60750209    0.10586300   3      29  H
    0.52166834    0.24786487    0.75015181   3      30  H
    0.49420016    0.75201758    0.24814946   3      31  H
    0.52271329    0.75132579    0.75080254   3      32  H
    0.50516332    0.39276008    0.89466944   3      33  H
    0.52406417    0.90146663    0.39079314   3      34  H
    0.50556267    0.60611855    0.89494211   3      35  H
    0.53570123    0.90102283    0.60550412   3      36  H
    0.52148124    0.49992116    0.49847358   4      37  Fe2

superc: Internal auxiliary supercell:     1 x     3 x     3  =       9
superc: Number of atoms, orbitals, and projectors:    333   3483   4599

outcell: Unit cell vectors (Ang):
       12.731213    0.000000    0.000000
        0.000000   12.731213    0.000000
        0.000000    0.000000   12.731213

outcell: Cell vector modules (Ang)   :   12.731213   12.731213   12.731213
outcell: Cell angles (23,13,12) (deg):     90.0000     90.0000     90.0000
outcell: Cell volume (Ang**3)        :   2063.5230
<dSpData1D:S at geom step 3
  <sparsity:sparsity for geom step 3
    nrows_g=387 nrows=387 sparsity=1.0869 nnzs=162777, refcount: 7>
  <dData1D:(new from dSpData1D) n=162777, refcount: 1>
refcount: 1>
new_DM -- step:     4
Re-using DM from previous geometries...
Number of DMs in history: 1
 DM extrapolation coefficients: 
1   1.00000
New DM after history re-use:
<dSpData2D:SpM extrapolated using coords
  <sparsity:sparsity for geom step 3
    nrows_g=387 nrows=387 sparsity=1.0869 nnzs=162777, refcount: 9>
[...]
              0.027   0.046   0.022   0.027   0.011
  15  3.803   0.126   0.715   0.355   0.352   0.662   0.589   0.591   0.280
              0.027   0.046   0.023   0.026   0.012
  16  3.984   0.320   0.605   0.649   0.579   0.591   0.296   0.369   0.328
              0.055   0.064   0.056   0.047   0.026
  17  3.986   0.324   0.603   0.579   0.649   0.591   0.368   0.297   0.328
              0.047   0.064   0.057   0.054   0.027
  18  3.984   0.320   0.605   0.649   0.579   0.591   0.296   0.369   0.328
              0.054   0.064   0.056   0.047   0.026
  19  3.986   0.322   0.604   0.580   0.651   0.589   0.367   0.296   0.329
              0.047   0.064   0.056   0.055   0.027
  20  3.802   0.122   0.716   0.357   0.344   0.664   0.589   0.599   0.277
              0.027   0.046   0.022   0.027   0.011
  21  3.798   0.176   0.676   0.372   0.306   0.684   0.575   0.616   0.257
              0.031   0.047   0.024   0.020   0.015
  22  3.798   0.177   0.676   0.301   0.377   0.686   0.618   0.570   0.256
              0.019   0.046   0.029   0.031   0.010
  23  3.798   0.176   0.676   0.373   0.305   0.684   0.574   0.617   0.257
              0.031   0.047   0.024   0.020   0.015
  24  3.798   0.175   0.677   0.301   0.379   0.684   0.619   0.569   0.258
              0.020   0.046   0.029   0.031   0.010

Species: H                   
Atom  Qatom  Qorb
               1s      1s      2Ppy    2Ppz    2Ppx    
  25  1.228   0.798   0.328   0.032   0.033   0.037
  26  1.244   0.805   0.327   0.041   0.032   0.039
  27  1.243   0.804   0.328   0.032   0.040   0.039
  28  1.244   0.806   0.327   0.041   0.031   0.039
  29  1.243   0.804   0.328   0.032   0.040   0.039
  30  1.229   0.798   0.328   0.033   0.033   0.037
  31  1.228   0.798   0.328   0.033   0.033   0.037
  32  1.229   0.798   0.328   0.032   0.033   0.037
  33  1.244   0.807   0.327   0.032   0.040   0.039
  34  1.243   0.805   0.327   0.041   0.031   0.039
  35  1.244   0.806   0.327   0.032   0.040   0.039
  36  1.244   0.806   0.327   0.041   0.031   0.039

Species: Fe2                 
Atom  Qatom  Qorb
               4s      4s      3dxy    3dyz    3dz2    3dxz    3dx2-y2 3dxy    
               3dyz    3dz2    3dxz    3dx2-y2 4Ppy    4Ppz    4Ppx    
  37  7.310   0.712   0.008   1.253   1.936   0.895   1.210   1.226  -0.053
             -0.062  -0.042  -0.050  -0.040   0.115   0.117   0.085

mulliken: Qtot =      120.000

                     ====================================
                        Begin CG opt. move =     20
                     ====================================

outcoor: Atomic coordinates (fractional):                   
    0.51660243    0.34547962    0.49825122   1       1  N
    0.49712263    0.50015863    0.34690517   1       2  N
    0.51423776    0.49974243    0.65124736   1       3  N
    0.51744900    0.65435871    0.49866392   1       4  N
    0.51372734    0.27531337    0.41036797   2       5  C
    0.48829986    0.41248136    0.27691376   2       6  C
    0.52383022    0.27490284    0.58549284   2       7  C
    0.48891048    0.58806110    0.27713026   2       8  C
    0.49819194    0.30732892    0.30662094   2       9  C
    0.52207740    0.16706476    0.44342862   2      10  C
    0.47172518    0.44630001    0.17021272   2      11  C
    0.52834373    0.16694386    0.55143832   2      12  C
    0.47211167    0.55462212    0.17034932   2      13  C
    0.52009466    0.30670512    0.69026429   2      14  C
    0.49948039    0.69308007    0.30709800   2      15  C
    0.51304082    0.41160329    0.72143406   2      16  C
    0.51509762    0.72474974    0.41093916   2      17  C
    0.51338176    0.58771187    0.72166769   2      18  C
    0.52493559    0.72468833    0.58608550   2      19  C
    0.52092165    0.69264960    0.69077697   2      20  C
    0.50745521    0.44545221    0.82919168   2      21  C
    0.52402811    0.83287040    0.44427909   2      22  C
    0.50765485    0.55359525    0.82933945   2      23  C
    0.53010883    0.83269560    0.55229925   2      24  C
    0.49221398    0.24644029    0.24491304   3      25  H
    0.52150879    0.09935355    0.38936671   3      26  H
    0.46247276    0.39220811    0.10326435   3      27  H
    0.53369376    0.09900861    0.60473671   3      28  H
    0.46324675    0.60893705    0.10353364   3      29  H
    0.52144438    0.24593405    0.75206243   3      30  H
    0.49393941    0.75415130    0.24552721   3      31  H
    0.52249800    0.75325628    0.75272995   3      32  H
    0.50536752    0.39118102    0.89648544   3      33  H
    0.52397876    0.90071863    0.39039073   3      34  H
    0.50576866    0.60769971    0.89677426   3      35  H
    0.53578946    0.90045416    0.60579132   3      36  H
    0.51233030    0.49993397    0.49851617   4      37  Fe2

superc: Internal auxiliary supercell:     1 x     3 x     3  =       9
superc: Number of atoms, orbitals, and projectors:    333   3483   4599

outcell: Unit cell vectors (Ang):
       12.731213    0.000000    0.000000
        0.000000   12.731213    0.000000
        0.000000    0.000000   12.731213

outcell: Cell vector modules (Ang)   :   12.731213   12.731213   12.731213
outcell: Cell angles (23,13,12) (deg):     90.0000     90.0000     90.0000
outcell: Cell volume (Ang**3)        :   2063.5230
<dSpData1D:S at geom step 20
  <sparsity:sparsity for geom step 20
    nrows_g=387 nrows=387 sparsity=1.0876 nnzs=162895, refcount: 7>
  <dData1D:(new from dSpData1D) n=162895, refcount: 1>
refcount: 1>
new_DM -- step:    21
Re-using DM from previous geometries...
Number of DMs in history: 1
 DM extrapolation coefficients: 
1   1.00000
New DM after history re-use:
<dSpData2D:SpM extrapolated using coords
  <sparsity:sparsity for geom step 20
    nrows_g=387 nrows=387 sparsity=1.0876 nnzs=162895, refcount: 9>
  <dData2D:(temp array for extrapolation) n=162895 m=1, refcount: 1>
refcount: 1>
No. of atoms with KB's overlaping orbs in proc 0. Max # of overlaps:      53     271

InitMesh: MESH = 150 x 150 x 150 = 3375000
InitMesh: Mesh cutoff (required, used) =   370.000   383.658 Ry
New grid distribution [1]: sub = 2

        iscf     Eharris(eV)        E_KS(eV)     FreeEng(eV)     dDmax    Ef(eV) dHmax(eV)
   scf:    1    -5164.634593    -5164.661840    -5164.755778  0.024031 -4.592044  0.122169
   scf:    2    -5163.992618    -5164.443843    -5164.534340  0.279193 -4.522873  2.780895
   scf:    3    -5164.668469    -5164.662312    -5164.756488  0.263623 -4.589173  0.022018
   scf:    4    -5164.662404    -5164.662375    -5164.756553  0.004953 -4.589351  0.014813
   scf:    5    -5164.661600    -5164.662119    -5164.756364  0.013846 -4.587902  0.029239
   scf:    6    -5164.662428    -5164.662400    -5164.756582  0.013773 -4.587966  0.004320
   scf:    7    -5164.662390    -5164.662397    -5164.756586  0.001518 -4.587958  0.003007
   scf:    8    -5164.662402    -5164.662400    -5164.756586  0.000320 -4.587866  0.003422
   scf:    9    -5164.662399    -5164.662400    -5164.756587  0.000075 -4.587454  0.001064
   scf:   10    -5164.662400    -5164.662400    -5164.756587  0.000027 -4.587458  0.000957
   scf:   11    -5164.662401    -5164.662400    -5164.756587  0.000225 -4.587464  0.000294
   scf:   12    -5164.662400    -5164.662400    -5164.756587  0.000024 -4.587466  0.000219
   scf:   13    -5164.662399    -5164.662400    -5164.756587  0.000103 -4.587473  0.000166
   scf:   14    -5164.662400    -5164.662400    -5164.756587  0.000004 -4.587474  0.000153

SCF Convergence by DM+H criterion
max |DM_out - DM_in|         :     0.0000043387
max |H_out - H_in|      (eV) :     0.0001529185
SCF cycle converged after 14 iterations

Using DM_out to compute the final energy and forces
No. of atoms with KB's overlaping orbs in proc 0. Max # of overlaps:      53     271

siesta: E_KS(eV) =            -5164.6624

siesta: Atomic forces (eV/Ang):
     1   -0.008405    0.059247   -0.053385
     2    0.054133   -0.000681   -0.074255
     3    0.054434    0.000765    0.006094
     4   -0.009053   -0.059251   -0.054964
     5   -0.041396   -0.031658   -0.041689
     6   -0.016169   -0.105899   -0.035338
     7   -0.031232    0.053603    0.045052
     8   -0.015395    0.108190   -0.033677
     9   -0.008270   -0.042571   -0.019234
    10   -0.008304    0.015833   -0.109605
    11    0.025680   -0.019971   -0.073920
    12   -0.005744   -0.039767    0.030594
    13    0.025610    0.018350   -0.076075
    14   -0.015570   -0.001890    0.072384
    15   -0.009063    0.041038   -0.019942
    16   -0.020193    0.075080   -0.046443
    17   -0.040502    0.033732   -0.039887
    18   -0.020213   -0.077168   -0.045093
    19   -0.031281   -0.056142    0.047573
    20   -0.015726    0.004463    0.070030
    21    0.039404   -0.137938    0.086271
    22   -0.007867   -0.016436   -0.109209
    23    0.039709    0.139185    0.083259
    24   -0.004864    0.039885    0.031629
    25    0.030958    0.073512    0.076926
    26    0.008720    0.062280    0.059181
    27   -0.018952    0.057384    0.012758
    28    0.015000    0.026484   -0.013002
    29   -0.019518   -0.055563    0.011669
    30    0.016512   -0.001872   -0.020497
    31    0.030039   -0.074707    0.077130
    32    0.016726    0.002062   -0.020296
    33   -0.001417    0.043832    0.032570
    34    0.009127   -0.061550    0.057632
    35   -0.001601   -0.044714    0.032595
    36    0.015720   -0.026558   -0.013584
    37   -0.009176    0.002062    0.111623
----------------------------------------
   Tot    0.021862    0.002648    0.044876
----------------------------------------
   Max    0.139185
   Res    0.049413    sqrt( Sum f_i^2 / 3N )
----------------------------------------
   Max    0.139185    constrained

Stress tensor Voigt[x,y,z,yz,xz,xy] (kbar):        0.02        0.71       -1.39        0.01       -0.04        0.00
(Free)E + p*V (eV/cell)    -5164.4740
Target enthalpy (eV/cell)    -5164.7566

mulliken: Atomic and Orbital Populations:

Species: N                   
Atom  Qatom  Qorb
               2s      2s      2py     2pz     2px     2py     2pz     2px     
               3Pdxy   3Pdyz   3Pdz2   3Pdxz   3Pdx2-y2
   1  5.089   0.843   0.511   0.773   0.582   1.282   0.432   0.486   0.068
              0.019   0.043   0.021   0.023   0.007
   2  5.082   0.828   0.521   0.581   0.752   1.282   0.487   0.447   0.070
              0.023   0.043   0.014   0.018   0.014
   3  5.085   0.835   0.517   0.583   0.757   1.288   0.485   0.444   0.064
              0.023   0.043   0.014   0.019   0.014
   4  5.089   0.843   0.511   0.773   0.582   1.282   0.432   0.486   0.068
              0.019   0.043   0.021   0.023   0.007

Species: C                   
Atom  Qatom  Qorb
               2s      2s      2py     2pz     2px     2py     2pz     2px     
               3Pdxy   3Pdyz   3Pdz2   3Pdxz   3Pdx2-y2
   5  3.986   0.324   0.603   0.579   0.649   0.591   0.368   0.297   0.328
              0.047   0.064   0.057   0.054   0.027
   6  3.986   0.320   0.605   0.651   0.581   0.590   0.295   0.367   0.329
              0.055   0.064   0.057   0.045   0.028
   7  3.986   0.322   0.604   0.580   0.651   0.589   0.367   0.296   0.329
              0.047   0.064   0.056   0.055   0.026
   8  3.986   0.320   0.605   0.651   0.581   0.590   0.295   0.367   0.329
              0.055   0.064   0.057   0.045   0.028
   9  3.803   0.125   0.715   0.357   0.350   0.662   0.588   0.592   0.280
              0.027   0.046   0.023   0.026   0.012
  10  3.797   0.177   0.677   0.302   0.375   0.686   0.617   0.572   0.255
              0.020   0.046   0.029   0.031   0.010
  11  3.798   0.178   0.676   0.374   0.313   0.678   0.573   0.609   0.262
              0.031   0.046   0.024   0.019   0.016
  12  3.797   0.175   0.677   0.299   0.380   0.684   0.621   0.568   0.258
              0.020   0.046   0.029   0.031   0.010
  13  3.798   0.178   0.676   0.372   0.314   0.678   0.574   0.608   0.262
              0.031   0.046   0.024   0.019   0.016
  14  3.802   0.122   0.716   0.356   0.346   0.664   0.590   0.598   0.277
              0.027   0.046   0.022   0.027   0.011
  15  3.803   0.125   0.715   0.356   0.351   0.662   0.589   0.591   0.280
              0.027   0.046   0.023   0.026   0.012
  16  3.984   0.320   0.605   0.649   0.579   0.591   0.295   0.369   0.328
              0.055   0.064   0.056   0.047   0.026
  17  3.986   0.324   0.603   0.579   0.649   0.591   0.367   0.297   0.328
              0.047   0.064   0.057   0.054   0.027
  18  3.984   0.320   0.605   0.650   0.579   0.591   0.295   0.369   0.328
              0.054   0.064   0.056   0.047   0.026
  19  3.986   0.322   0.604   0.580   0.651   0.589   0.367   0.296   0.329
              0.047   0.064   0.056   0.055   0.026
  20  3.802   0.122   0.716   0.357   0.344   0.664   0.589   0.599   0.277
              0.027   0.046   0.022   0.027   0.011
  21  3.797   0.175   0.676   0.372   0.306   0.684   0.575   0.616   0.256
              0.031   0.047   0.024   0.020   0.015
  22  3.797   0.177   0.677   0.301   0.377   0.686   0.618   0.571   0.255
              0.019   0.046   0.029   0.031   0.010
  23  3.797   0.175   0.676   0.373   0.304   0.684   0.574   0.617   0.256
              0.031   0.047   0.024   0.020   0.015
  24  3.798   0.175   0.677   0.301   0.379   0.684   0.619   0.569   0.258
              0.020   0.046   0.029   0.031   0.010

Species: H                   
Atom  Qatom  Qorb
               1s      1s      2Ppy    2Ppz    2Ppx    
  25  1.229   0.798   0.328   0.032   0.033   0.037
  26  1.244   0.806   0.327   0.041   0.032   0.039
  27  1.243   0.804   0.328   0.032   0.040   0.039
  28  1.245   0.806   0.327   0.041   0.031   0.039
  29  1.243   0.805   0.328   0.032   0.040   0.039
  30  1.229   0.798   0.328   0.032   0.033   0.037
  31  1.229   0.798   0.328   0.033   0.033   0.037
  32  1.229   0.798   0.328   0.032   0.033   0.037
  33  1.245   0.807   0.327   0.032   0.040   0.039
  34  1.244   0.805   0.327   0.041   0.032   0.039
  35  1.245   0.807   0.327   0.032   0.041   0.039
  36  1.245   0.806   0.327   0.041   0.031   0.039

Species: Fe2                 
Atom  Qatom  Qorb
               4s      4s      3dxy    3dyz    3dz2    3dxz    3dx2-y2 3dxy    
               3dyz    3dz2    3dxz    3dx2-y2 4Ppy    4Ppz    4Ppx    
  37  7.310   0.713   0.009   1.254   1.936   0.895   1.208   1.226  -0.053
             -0.062  -0.042  -0.050  -0.040   0.115   0.117   0.085

mulliken: Qtot =      120.000

cgvc: Finished line minimization   18.  Mean atomic displacement =    0.0085

                     ====================================
                        Begin CG opt. move =     21
                     ====================================

outcoor: Atomic coordinates (fractional):                   
    0.51616753    0.34565403    0.49820517   1       1  N
    0.49720910    0.50015553    0.34647317   1       2  N
    0.51428554    0.49974535    0.65151905   1       3  N
    0.51701247    0.65418663    0.49861342   1       4  N
    0.51349605    0.27523504    0.41020255   2       5  C
    0.48839652    0.41228747    0.27653383   2       6  C
    0.52362730    0.27504141    0.58558912   2       7  C
    0.48900933    0.58825838    0.27675348   2       8  C
    0.49843055    0.30724577    0.30652853   2       9  C
    0.52211790    0.16730018    0.44318691   2      10  C
    0.47183545    0.44623879    0.16970409   2      11  C
    0.52840794    0.16694028    0.55148924   2      12  C
    0.47222301    0.55467991    0.16983864   2      13  C
    0.52031145    0.30680503    0.69056019   2      14  C
    0.49971713    0.69316021    0.30700680   2      15  C
    0.51313272    0.41168918    0.72165794   2      16  C
    0.51486788    0.72483162    0.41077812   2      17  C
    0.51347333    0.58762573    0.72189146   2      18  C
    0.52473237    0.72454911    0.58618475   2      19  C
    0.52113746    0.69255026    0.69107051   2      20  C
    0.50763842    0.44528829    0.82974413   2      21  C
    0.52407029    0.83263344    0.44403562   2      22  C
    0.50783924    0.55376134    0.82988749   2      23  C
    0.53017633    0.83269836    0.55235265   2      24  C
    0.49225135    0.24654413    0.24504630   3      25  H
    0.52150738    0.09940810    0.38941857   3      26  H
    0.46224251    0.39222383    0.10285993   3      27  H
    0.53376305    0.09900520    0.60481633   3      28  H
    0.46301538    0.60892643    0.10312537   3      29  H
    0.52139598    0.24585650    0.75202805   3      30  H
    0.49397269    0.75404230    0.24566007   3      31  H
    0.52245085    0.75333482    0.75269702   3      32  H
    0.50533926    0.39114086    0.89698254   3      33  H
    0.52398403    0.90066563    0.39044121   3      34  H
    0.50573996    0.60773670    0.89727040   3      35  H
    0.53586585    0.90045733    0.60587172   3      36  H
    0.51239361    0.49993843    0.49878308   4      37  Fe2

superc: Internal auxiliary supercell:     1 x     3 x     3  =       9
superc: Number of atoms, orbitals, and projectors:    333   3483   4599

outcell: Unit cell vectors (Ang):
       12.731213    0.000000    0.000000
        0.000000   12.731213    0.000000
        0.000000    0.000000   12.731213

outcell: Cell vector modules (Ang)   :   12.731213   12.731213   12.731213
outcell: Cell angles (23,13,12) (deg):     90.0000     90.0000     90.0000
outcell: Cell volume (Ang**3)        :   2063.5230
<dSpData1D:S at geom step 21
  <sparsity:sparsity for geom step 21
    nrows_g=387 nrows=387 sparsity=1.0876 nnzs=162895, refcount: 7>
  <dData1D:(new from dSpData1D) n=162895, refcount: 1>
refcount: 1>
new_DM -- step:    22
Re-using DM from previous geometries...
Number of DMs in history: 1
 DM extrapolation coefficients: 
1   1.00000
New DM after history re-use:
<dSpData2D:SpM extrapolated using coords
  <sparsity:sparsity for geom step 21
    nrows_g=387 nrows=387 sparsity=1.0876 nnzs=162895, refcount: 9>
  <dData2D:(temp array for extrapolation) n=162895 m=1, refcount: 1>
refcount: 1>
No. of atoms with KB's overlaping orbs in proc 0. Max # of overlaps:      53     271

InitMesh: MESH = 150 x 150 x 150 = 3375000
InitMesh: Mesh cutoff (required, used) =   370.000   383.658 Ry
New grid distribution [1]: sub = 2

        iscf     Eharris(eV)        E_KS(eV)     FreeEng(eV)     dDmax    Ef(eV) dHmax(eV)
   scf:    1    -5164.768416    -5164.653791    -5164.747497  0.091245 -4.595452  0.173252
   scf:    2    -5163.263377    -5164.232897    -5164.289254  0.644939 -4.542191  1.507810
   scf:    3    -5164.706185    -5164.662211    -5164.756367  0.538795 -4.588782  0.155578
   scf:    4    -5164.663749    -5164.663034    -5164.757232  0.009317 -4.589597  0.117234
   scf:    5    -5164.620120    -5164.652813    -5164.745876  0.121336 -4.600878  0.565304
   scf:    6    -5164.669123    -5164.664711    -5164.758784  0.067551 -4.591836  0.124601
   scf:    7    -5164.665297    -5164.665354    -5164.759558  0.021884 -4.589303  0.011165
   scf:    8    -5164.665378    -5164.665368    -5164.759565  0.001653 -4.589252  0.009867
   scf:    9    -5164.665385    -5164.665378    -5164.759574  0.000162 -4.588995  0.008495
   scf:   10    -5164.665378    -5164.665379    -5164.759577  0.000260 -4.588875  0.007404
   scf:   11    -5164.665376    -5164.665379    -5164.759585  0.000917 -4.588726  0.006725
   scf:   12    -5164.665393    -5164.665386    -5164.759588  0.000279 -4.588813  0.004530
   scf:   13    -5164.665389    -5164.665387    -5164.759589  0.000237 -4.588834  0.004078
   scf:   14    -5164.665385    -5164.665387    -5164.759591  0.000896 -4.588850  0.002371
   scf:   15    -5164.665386    -5164.665386    -5164.759592  0.000091 -4.588850  0.002019
   scf:   16    -5164.665386    -5164.665386    -5164.759592  0.000152 -4.588873  0.001239
   scf:   17    -5164.665389    -5164.665388    -5164.759593  0.000074 -4.588918  0.000974
