Siesta Version  : 5.0.0-alpha-10-g89f2f52d8-dirty
Architecture    : unknown
Compiler version: GNU Fortran (Ubuntu 9.3.0-17ubuntu1~20.04) 9.3.0
Compiler flags  : gfortran -O2 -fPIC -ftree-vectorize
PP flags        : -DFC_HAVE_ABORT -DSIESTA__DIAG_2STAGE -DSIESTA__MRRR
Libraries       : libsiestaLAPACK.a libsiestaBLAS.a
Directory       : /home/runner/work/ip/ip/ip
SERIAL version

* Running in serial mode
>> Start of run:  28-JUN-2021  10:28:24

                           ***********************       
                           *  WELCOME TO SIESTA  *       
                           ***********************       

reinit: Reading from standard input
reinit: Dumped input in INPUT_TMP.73695
************************** Dump of input data file ****************************
SystemName          iron porphyrin
SystemLabel         ip
# Species and atoms
 NumberOfAtoms          37
 NumberOfSpecies           4
 %block ChemicalSpeciesLabel
    1       7      N
    2       6      C
    3       1      H
    4      26      Fe2
 %endblock ChemicalSpeciesLabel
 # Basis
 PAO.BasisType         split
 PAO.BasisSize         DZP
 PAO.EnergyShift       50 meV
 LatticeConstant  1.000000  Ang
 AtomicCoordinatesFormat     Fractional
 %block LatticeVectors
   12.7312126160    0.0000000000    0.0000000000
    0.0000000000   12.7312126160    0.0000000000
    0.0000000000    0.0000000000   12.7312126160
 %endblock LatticeVectors
 %block AtomicCoordinatesAndAtomicSpecies
    0.5183603760    0.3417397440    0.4985649590    1
    0.4923353790    0.5001747610    0.3501061800    1
    0.5097091790    0.4997498390    0.6464495660    1
    0.5192401410    0.6580858830    0.4989733990    1
    0.5145021680    0.2750532630    0.4113305210    2
    0.4856400190    0.4133637250    0.2822375600    2
    0.5238830450    0.2749275570    0.5832529070    2
    0.4862518910    0.5871979000    0.2824519870    2
    0.4972909090    0.3081341390    0.3103016610    2
    0.5222147110    0.1662568750    0.4435646830    2
    0.4720702170    0.4462019210    0.1763552730    2
    0.5279674530    0.1661633850    0.5506197210    2
    0.4724582430    0.5547202830    0.1764895620    2
    0.5194026830    0.3082684580    0.6873050330    2
    0.4985798600    0.6922837500    0.3107760850    2
    0.5106611850    0.4117496010    0.7156228420    2
    0.5158821940    0.7250119450    0.4119015630    2
    0.5110036730    0.5875678660    0.7158522010    2
    0.5249913330    0.7246545550    0.5838388200    2
    0.5202195640    0.6910780670    0.6878022550    2
    0.5069584850    0.4460039730    0.8232787250    2
    0.5241563920    0.8336834910    0.4444208740    2
    0.5071579810    0.5530440810    0.8234193330    2
    0.5297175050    0.8334753510    0.5514868500    2
    0.4921680690    0.2497689430    0.2485416230    3
    0.5214449170    0.1000754540    0.3905665870    3
    0.4651415940    0.3939154740    0.1099680360    3
    0.5328326820    0.0999999940    0.6033821700    3
    0.4659050410    0.6072203520    0.1102335450    3
    0.5216633080    0.2496581970    0.7489330770    3
    0.4938788120    0.7508257030    0.2491511700    3
    0.5226992960    0.7495257260    0.7495763900    3
    0.5058494210    0.3933852610    0.8897515540    3
    0.5238366720    0.8999999760    0.3915885090    3
    0.5062460900    0.6054899690    0.8900319340    3
    0.5348584060    0.8994753360    0.6044284110    3
    0.5248350500    0.4999022190    0.4999128280    4
 %endblock AtomicCoordinatesAndAtomicSpecies
 %block kgrid_Monkhorst_Pack
   1   0   0    0.000000
   0   2   0    0.000000
   0   0   2    0.000000
 %endblock kgrid_Monkhorst_Pack
 SpinPolarized         .false.        # Logical parameters are: yes or no
 xc.functional         GGA            # Exchange-correlation functional
 xc.authors            PBE            # Exchange-correlation version
 SolutionMethod        diagon         # OrderN or Diagon
 MaxSCFIterations      300            # Maximum number of SCF iter
 DM.MixingWeight       0.02          # New DM amount for next SCF cycle
 DM.Tolerance          1.d-5          # Tolerance in maximum difference
 MeshCutoff            370.0 Ry       # Mesh cutoff. real space mesh
 DM.NumberPulay         4
 ElectronicTemperature  25 meV        # Temp. for Fermi smearing
 # MD options
 MD.TypeOfRun           cg            # Type of dynamics:
 MD.NumCGsteps          50           # Number of CG steps for
 MD.MaxCGDispl          0.1 Ang       # Maximum atomic displacement
 MD.MaxForceTol         0.04 eV/Ang   # Tolerance in the maximum
 # Output options
 WriteCoorInitial      .true.
 WriteEigenvalues      .true.
 # Options for saving/reading
 DM.UseSaveDM          .true.         # to use continuation files
 UseSaveData           .true.
	# -- SAVING WAVE/BAND/EIGEN/KPOINTS/ANIMATION INFORMATION --
WriteKbands            	T
WriteBands           	T
WriteCoorXmol 		T
WriteCoorStep       	T
WriteKpoints        	T
WriteCoorCerius		T
WriteHS             	T
WriteForces           	T
WriteMullikenPop	1
SaveHS			T
XML.Write              	T
BandLinesScale      ReciprocalLatticeVectors
%block BandLines
1  0.0000000000 0.0000000000 0.0000000000  \Gamma
10 0.0000000000 0.5000000000 0.0000000000  X
10 0.0000000000 0.0000000000 0.5000000000  Y
10 0.0000000000 0.0000000000 0.0000000000  \Gamma
10 0.5000000000 0.0000000000 0.0000000000  Z
10 0.5000000000 0.5000000000 0.5000000000  R
10 0.0000000000 0.0000000000 0.0000000000  \Gamma
10 0.5000000000 0.0000000000 0.5000000000  T
10 0.5000000000 0.5000000000 0.0000000000  U
10 0.0000000000 0.0000000000 0.0000000000  \Gamma
10 0.0000000000 0.5000000000 0.5000000000  V
10 0.0000000000 0.0000000000 0.0000000000  \Gamma
%endblock BandLines
************************** End of input data file *****************************

reinit: -----------------------------------------------------------------------
reinit: System Name: iron porphyrin
reinit: -----------------------------------------------------------------------
reinit: System Label: ip
reinit: -----------------------------------------------------------------------

initatom: Reading input for the pseudopotentials and atomic orbitals ----------
Species number:   1 Atomic number:    7 Label: N
Species number:   2 Atomic number:    6 Label: C
Species number:   3 Atomic number:    1 Label: H
Species number:   4 Atomic number:   26 Label: Fe2

Ground state valence configuration:   2s02  2p03
Reading pseudopotential information in formatted form from N.psf

Pseudopotential generated from a relativistic atomic calculation

Valence configuration for pseudopotential generation:
2s( 2.00) rc: 1.29
2p( 3.00) rc: 1.42
3d( 0.00) rc: 1.74
4f( 0.00) rc: 2.98
Ground state valence configuration:   2s02  2p02
Reading pseudopotential information in formatted form from C.psf

Pseudopotential generated from a relativistic atomic calculation

Valence configuration for pseudopotential generation:
2s( 2.00) rc: 1.84
2p( 2.00) rc: 1.62
3d( 0.00) rc: 1.64
4f( 0.00) rc: 1.64
Ground state valence configuration:   1s01
Reading pseudopotential information in formatted form from H.psf

Pseudopotential generated from a relativistic atomic calculation

Valence configuration for pseudopotential generation:
1s( 1.00) rc: 1.31
2p( 0.00) rc: 1.13
3d( 0.00) rc: 1.09
4f( 0.00) rc: 1.14
Ground state valence configuration:   4s02  3d06
Reading pseudopotential information in formatted form from Fe2.psf

Pseudopotential generated from a relativistic atomic calculation

Valence configuration for pseudopotential generation:
4s( 0.00) rc: 2.00
4p( 0.00) rc: 2.00
3d( 6.00) rc: 2.00
4f( 0.00) rc: 2.00
For N, standard SIESTA heuristics set lmxkb to 3
 (one more than the basis l, including polarization orbitals).
Use PS.lmax or PS.KBprojectors blocks to override.
For C, standard SIESTA heuristics set lmxkb to 3
 (one more than the basis l, including polarization orbitals).
Use PS.lmax or PS.KBprojectors blocks to override.
For H, standard SIESTA heuristics set lmxkb to 2
 (one more than the basis l, including polarization orbitals).
Use PS.lmax or PS.KBprojectors blocks to override.
For Fe2, standard SIESTA heuristics set lmxkb to 3
 (one more than the basis l, including polarization orbitals).
Use PS.lmax or PS.KBprojectors blocks to override.
Fe2: nkbl increased for l=1 due to the presence of a polarization orbital

<basis_specs>
===============================================================================
N                    Z=   7    Mass=  14.010        Charge= 0.17977+309
Lmxo=1 Lmxkb= 3    BasisType=split      Semic=F
L=0  Nsemic=0  Cnfigmx=2
          i=1  nzeta=2  polorb=0  (2s)
            splnorm:   0.15000    
               vcte:    0.0000    
               rinn:    0.0000    
               qcoe:    0.0000    
               qyuk:    0.0000    
               qwid:   0.10000E-01
                rcs:    0.0000      0.0000    
            lambdas:    1.0000      1.0000    
L=1  Nsemic=0  Cnfigmx=2
          i=1  nzeta=2  polorb=1  (2p)
            splnorm:   0.15000    
               vcte:    0.0000    
               rinn:    0.0000    
               qcoe:    0.0000    
               qyuk:    0.0000    
               qwid:   0.10000E-01
                rcs:    0.0000      0.0000    
            lambdas:    1.0000      1.0000    
-------------------------------------------------------------------------------
L=0  Nkbl=1  erefs: 0.17977+309
L=1  Nkbl=1  erefs: 0.17977+309
L=2  Nkbl=1  erefs: 0.17977+309
L=3  Nkbl=1  erefs: 0.17977+309
===============================================================================
</basis_specs>

atom: Called for N                     (Z =   7)

read_vps: Pseudopotential generation method:
read_vps: ATM4.1.0  Troullier-Martins                       
Valence charge for ps generation:    5.00000

read_vps: Pseudopotential includes a core correction:
read_vps: Pseudo-core for xc-correction

xc_check: Exchange-correlation functional:
xc_check: GGA Perdew, Burke & Ernzerhof 1996
V l=0 = -2*Zval/r beyond r=  1.3893
V l=1 = -2*Zval/r beyond r=  1.4068
V l=2 = -2*Zval/r beyond r=  1.7184
V l=3 = -2*Zval/r beyond r=  2.9051
All V_l potentials equal beyond r=  2.9051
This should be close to max(r_c) in ps generation
All pots = -2*Zval/r beyond r=  2.9051

VLOCAL1: 99.0% of the norm of Vloc inside      5.143 Ry
VLOCAL1: 99.9% of the norm of Vloc inside     11.722 Ry
atom: Maximum radius for 4*pi*r*r*local-pseudopot. charge    3.46076
atom: Maximum radius for r*vlocal+2*Zval:    3.05407

KBgen: Kleinman-Bylander projectors: 
GHOST: No ghost state for L =  0
   l= 0   rc=  3.016124   el= -1.364978   Ekb= -2.808808   kbcos= -0.742527
GHOST: No ghost state for L =  1
   l= 1   rc=  2.978652   el= -0.521172   Ekb= -8.658168   kbcos= -0.584939
GHOST: No ghost state for L =  2
   l= 2   rc=  3.333369   el=  0.001991   Ekb= -1.641438   kbcos= -0.029991
GHOST: No ghost state for L =  3
   l= 3   rc=  3.460758   el=  0.003093   Ekb= -0.279848   kbcos= -0.014018

KBgen: Total number of  Kleinman-Bylander projectors:   16
atom: -------------------------------------------------------------------------

atom: SANKEY-TYPE ORBITALS:
atom: Selected multiple-zeta basis: split     

SPLIT: Orbitals with angular momentum L= 0

SPLIT: Basis orbitals for state 2s

SPLIT: PAO cut-off radius determined from an
SPLIT: energy shift=  0.003675 Ry

   izeta = 1
                 lambda =    1.000000
                     rc =    4.388595
                 energy =   -1.361280
                kinetic =    1.182830
    potential(screened) =   -2.544110
       potential(ionic) =   -8.052211

   izeta = 2
                 rmatch =    2.941647
              splitnorm =    0.150000
                 energy =   -1.182724
                kinetic =    1.808505
    potential(screened) =   -2.991229
       potential(ionic) =   -8.894182

SPLIT: Orbitals with angular momentum L= 1

SPLIT: Basis orbitals for state 2p

SPLIT: PAO cut-off radius determined from an
SPLIT: energy shift=  0.003675 Ry

   izeta = 1
                 lambda =    1.000000
                     rc =    5.496027
                 energy =   -0.517594
                kinetic =    3.415465
    potential(screened) =   -3.933060
       potential(ionic) =   -9.235705

   izeta = 2
                 rmatch =    3.092486
              splitnorm =    0.150000
                 energy =   -0.339289
                kinetic =    5.055748
    potential(screened) =   -5.395036
       potential(ionic) =  -11.309880

POLgen: Perturbative polarization orbital with L=  2

POLgen: Polarization orbital for state 2p

   izeta = 1
                     rc =    5.496027
                 energy =    1.497544
                kinetic =    3.057213
    potential(screened) =   -1.559669
       potential(ionic) =   -5.761067
atom: Total number of Sankey-type orbitals: 13

atm_pop: Valence configuration (for local Pseudopot. screening):
 2s( 2.00)                                                            
 2p( 3.00)                                                            
Vna: chval, zval:    5.00000   5.00000

Vna:  Cut-off radius for the neutral-atom potential:   5.496027
comcore: Pseudo-core radius Rcore=  1.554824

atom: _________________________________________________________________________

<basis_specs>
===============================================================================
C                    Z=   6    Mass=  12.010        Charge= 0.17977+309
Lmxo=1 Lmxkb= 3    BasisType=split      Semic=F
L=0  Nsemic=0  Cnfigmx=2
          i=1  nzeta=2  polorb=0  (2s)
            splnorm:   0.15000    
               vcte:    0.0000    
               rinn:    0.0000    
               qcoe:    0.0000    
               qyuk:    0.0000    
               qwid:   0.10000E-01
                rcs:    0.0000      0.0000    
            lambdas:    1.0000      1.0000    
L=1  Nsemic=0  Cnfigmx=2
          i=1  nzeta=2  polorb=1  (2p)
            splnorm:   0.15000    
               vcte:    0.0000    
               rinn:    0.0000    
               qcoe:    0.0000    
               qyuk:    0.0000    
               qwid:   0.10000E-01
                rcs:    0.0000      0.0000    
            lambdas:    1.0000      1.0000    
-------------------------------------------------------------------------------
L=0  Nkbl=1  erefs: 0.17977+309
L=1  Nkbl=1  erefs: 0.17977+309
L=2  Nkbl=1  erefs: 0.17977+309
L=3  Nkbl=1  erefs: 0.17977+309
===============================================================================
</basis_specs>

atom: Called for C                     (Z =   6)

read_vps: Pseudopotential generation method:
read_vps: ATM3.3    Troullier-Martins                       
Valence charge for ps generation:    4.00000

xc_check: Exchange-correlation functional:
xc_check: GGA Perdew, Burke & Ernzerhof 1996
V l=0 = -2*Zval/r beyond r=  1.8140
V l=1 = -2*Zval/r beyond r=  1.7692
V l=2 = -2*Zval/r beyond r=  1.7692
V l=3 = -2*Zval/r beyond r=  1.7692
All V_l potentials equal beyond r=  1.8140
This should be close to max(r_c) in ps generation
All pots = -2*Zval/r beyond r=  1.8140

VLOCAL1: 99.0% of the norm of Vloc inside     13.192 Ry
VLOCAL1: 99.9% of the norm of Vloc inside     30.065 Ry
atom: Maximum radius for 4*pi*r*r*local-pseudopot. charge    2.16095
atom: Maximum radius for r*vlocal+2*Zval:    1.88329

KBgen: Kleinman-Bylander projectors: 
GHOST: No ghost state for L =  0
   l= 0   rc=  2.004780   el= -1.010207   Ekb=  2.995585   kbcos=  0.335322
GHOST: No ghost state for L =  1
   l= 1   rc=  1.979871   el= -0.388556   Ekb= -4.412411   kbcos= -0.405487
GHOST: No ghost state for L =  2
   l= 2   rc=  2.188140   el=  0.001971   Ekb= -1.183708   kbcos= -0.012464
GHOST: No ghost state for L =  3
   l= 3   rc=  2.479542   el=  0.003065   Ekb= -0.554381   kbcos= -0.001878

KBgen: Total number of  Kleinman-Bylander projectors:   16
atom: -------------------------------------------------------------------------

atom: SANKEY-TYPE ORBITALS:
atom: Selected multiple-zeta basis: split     

SPLIT: Orbitals with angular momentum L= 0

SPLIT: Basis orbitals for state 2s

SPLIT: PAO cut-off radius determined from an
SPLIT: energy shift=  0.003675 Ry

   izeta = 1
                 lambda =    1.000000
                     rc =    4.993604
                 energy =   -1.006386
                kinetic =    0.821009
    potential(screened) =   -1.827396
       potential(ionic) =   -5.411899

   izeta = 2
                 rmatch =    3.475094
              splitnorm =    0.150000
                 energy =   -0.870447
                kinetic =    1.260244
    potential(screened) =   -2.130691
       potential(ionic) =   -5.977467

SPLIT: Orbitals with angular momentum L= 1

SPLIT: Basis orbitals for state 2p

SPLIT: PAO cut-off radius determined from an
SPLIT: energy shift=  0.003675 Ry

   izeta = 1
                 lambda =    1.000000
                     rc =    6.253707
                 energy =   -0.384900
                kinetic =    2.331510
    potential(screened) =   -2.716409
       potential(ionic) =   -6.135594

   izeta = 2
                 rmatch =    3.745781
              splitnorm =    0.150000
                 energy =   -0.256413
                kinetic =    3.469048
    potential(screened) =   -3.725462
       potential(ionic) =   -7.535472

POLgen: Perturbative polarization orbital with L=  2

POLgen: Polarization orbital for state 2p

   izeta = 1
                     rc =    6.253707
                 energy =    1.024133
                kinetic =    2.152420
    potential(screened) =   -1.128287
       potential(ionic) =   -3.877835
atom: Total number of Sankey-type orbitals: 13

atm_pop: Valence configuration (for local Pseudopot. screening):
 2s( 2.00)                                                            
 2p( 2.00)                                                            
Vna: chval, zval:    4.00000   4.00000

Vna:  Cut-off radius for the neutral-atom potential:   6.253707

atom: _________________________________________________________________________

<basis_specs>
===============================================================================
H                    Z=   1    Mass=  1.0100        Charge= 0.17977+309
Lmxo=0 Lmxkb= 2    BasisType=split      Semic=F
L=0  Nsemic=0  Cnfigmx=1
          i=1  nzeta=2  polorb=1  (1s)
            splnorm:   0.15000    
               vcte:    0.0000    
               rinn:    0.0000    
               qcoe:    0.0000    
               qyuk:    0.0000    
               qwid:   0.10000E-01
                rcs:    0.0000      0.0000    
            lambdas:    1.0000      1.0000    
-------------------------------------------------------------------------------
L=0  Nkbl=1  erefs: 0.17977+309
L=1  Nkbl=1  erefs: 0.17977+309
L=2  Nkbl=1  erefs: 0.17977+309
===============================================================================
</basis_specs>

atom: Called for H                     (Z =   1)

read_vps: Pseudopotential generation method:
read_vps: ATM4.1.0  Troullier-Martins                       
Valence charge for ps generation:    1.00000

xc_check: Exchange-correlation functional:
xc_check: GGA Perdew, Burke & Ernzerhof 1996
V l=0 = -2*Zval/r beyond r=  1.2977
V l=1 = -2*Zval/r beyond r=  1.2656
V l=2 = -2*Zval/r beyond r=  1.2656
All V_l potentials equal beyond r=  1.2977
This should be close to max(r_c) in ps generation
All pots = -2*Zval/r beyond r=  1.2977

VLOCAL1: 99.0% of the norm of Vloc inside     25.776 Ry
VLOCAL1: 99.9% of the norm of Vloc inside     58.745 Ry
atom: Maximum radius for 4*pi*r*r*local-pseudopot. charge    1.52711
atom: Maximum radius for r*vlocal+2*Zval:    1.28155

KBgen: Kleinman-Bylander projectors: 
GHOST: No ghost state for L =  0
   l= 0   rc=  1.452513   el= -0.477183   Ekb= -1.957529   kbcos= -0.361582
GHOST: No ghost state for L =  1
   l= 1   rc=  1.730774   el=  0.001076   Ekb= -0.628875   kbcos= -0.020986
GHOST: No ghost state for L =  2
   l= 2   rc=  2.011274   el=  0.002010   Ekb= -0.258614   kbcos= -0.002433

KBgen: Total number of  Kleinman-Bylander projectors:    9
atom: -------------------------------------------------------------------------

atom: SANKEY-TYPE ORBITALS:
atom: Selected multiple-zeta basis: split     

SPLIT: Orbitals with angular momentum L= 0

SPLIT: Basis orbitals for state 1s

SPLIT: PAO cut-off radius determined from an
SPLIT: energy shift=  0.003675 Ry

   izeta = 1
                 lambda =    1.000000
                     rc =    6.047169
                 energy =   -0.473707
                kinetic =    0.890783
    potential(screened) =   -1.364491
       potential(ionic) =   -1.884975

   izeta = 2
                 rmatch =    4.052721
              splitnorm =    0.150000
                 energy =   -0.382777
                kinetic =    1.427749
    potential(screened) =   -1.810526
       potential(ionic) =   -2.357421

POLgen: Perturbative polarization orbital with L=  1

POLgen: Polarization orbital for state 1s

   izeta = 1
                     rc =    6.047169
                 energy =    0.568234
                kinetic =    1.185253
    potential(screened) =   -0.617020
       potential(ionic) =   -1.087179
atom: Total number of Sankey-type orbitals:  5

atm_pop: Valence configuration (for local Pseudopot. screening):
 1s( 1.00)                                                            
Vna: chval, zval:    1.00000   1.00000

Vna:  Cut-off radius for the neutral-atom potential:   6.047169

atom: _________________________________________________________________________

<basis_specs>
===============================================================================
Fe2                  Z=  26    Mass=  55.850        Charge= 0.17977+309
Lmxo=2 Lmxkb= 3    BasisType=split      Semic=F
L=0  Nsemic=0  Cnfigmx=4
          i=1  nzeta=2  polorb=1  (4s)
            splnorm:   0.15000    
               vcte:    0.0000    
               rinn:    0.0000    
               qcoe:    0.0000    
               qyuk:    0.0000    
               qwid:   0.10000E-01
                rcs:    0.0000      0.0000    
            lambdas:    1.0000      1.0000    
L=1  Nsemic=0  Cnfigmx=4
L=2  Nsemic=0  Cnfigmx=3
          i=1  nzeta=2  polorb=0  (3d)
            splnorm:   0.15000    
               vcte:    0.0000    
               rinn:    0.0000    
               qcoe:    0.0000    
               qyuk:    0.0000    
               qwid:   0.10000E-01
                rcs:    0.0000      0.0000    
            lambdas:    1.0000      1.0000    
-------------------------------------------------------------------------------
L=0  Nkbl=1  erefs: 0.17977+309
L=1  Nkbl=2  erefs: 0.17977+309 0.17977+309
L=2  Nkbl=1  erefs: 0.17977+309
L=3  Nkbl=1  erefs: 0.17977+309
===============================================================================
</basis_specs>

atom: Called for Fe2                   (Z =  26)

read_vps: Pseudopotential generation method:
read_vps: ATM4.2.7  Troullier-Martins                       
Valence charge for ps generation:    6.00000

read_vps: Pseudopotential includes a core correction:
read_vps: Pseudo-core for xc-correction

atom: Pseudopotential generated from an ionic configuration
atom: with net charge 2.00

xc_check: Exchange-correlation functional:
xc_check: GGA Perdew, Burke & Ernzerhof 1996
V l=0 = -2*Zval/r beyond r=  2.7302
V l=1 = -2*Zval/r beyond r=  2.7302
V l=2 = -2*Zval/r beyond r=  2.7302
V l=3 = -2*Zval/r beyond r=  2.7302
All V_l potentials equal beyond r=  1.9726
This should be close to max(r_c) in ps generation
All pots = -2*Zval/r beyond r=  2.7302
Using large-core scheme for Vlocal

atom: Estimated core radius    2.73018
atom: Maximum radius for 4*pi*r*r*local-pseudopot. charge    3.01733
atom: Maximum radius for r*vlocal+2*Zval:    2.76453

KBgen: Kleinman-Bylander projectors: 
GHOST: No ghost state for L =  0
   l= 0   rc=  2.047986   el= -1.482689   Ekb=  4.473766   kbcos=  0.320130
   l= 1   rc=  2.047986   el= -1.050151   Ekb=  2.808993   kbcos=  0.303763
   l= 1   rc=  2.047986   el= -0.425295   Ekb=  1.996072   kbcos=  0.016093
GHOST: No ghost state for L =  2
   l= 2   rc=  2.022544   el= -1.890984   Ekb=-12.596121   kbcos= -0.696221
GHOST: No ghost state for L =  3
   l= 3   rc=  2.047986   el= -0.275065   Ekb= -1.954499   kbcos= -0.028175
KBgen: More than one KB projector for some l shell(s)
KBgen: ghost-state analysis will not be performed

KBgen: Total number of  Kleinman-Bylander projectors:   19
atom: -------------------------------------------------------------------------

atom: SANKEY-TYPE ORBITALS:
atom: Selected multiple-zeta basis: split     

atom: basis set generated from the ionic configuration used
atom: to generate the pseudopotential

SPLIT: Orbitals with angular momentum L= 0

SPLIT: Basis orbitals for state 4s

SPLIT: PAO cut-off radius determined from an
SPLIT: energy shift=  0.003675 Ry

   izeta = 1
                 lambda =    1.000000
                     rc =    6.308440
                 energy =   -1.479221
                kinetic =    0.442339
    potential(screened) =   -1.921560
       potential(ionic) =   -6.621686

   izeta = 2
                 rmatch =    5.037372
              splitnorm =    0.150000
                 energy =   -1.401872
                kinetic =    0.694761
    potential(screened) =   -2.096634
       potential(ionic) =   -7.083320

SPLIT: Orbitals with angular momentum L= 2

SPLIT: Basis orbitals for state 3d

SPLIT: PAO cut-off radius determined from an
SPLIT: energy shift=  0.003675 Ry

   izeta = 1
                 lambda =    1.000000
                     rc =    4.228642
                 energy =   -1.887728
                kinetic =    9.621385
    potential(screened) =  -11.509113
       potential(ionic) =  -19.015244

   izeta = 2
                 rmatch =    2.099834
              splitnorm =    0.150000
                 energy =   -1.426594
                kinetic =   13.244057
    potential(screened) =  -14.670651
       potential(ionic) =  -22.733758

POLgen: Perturbative polarization orbital with L=  1

POLgen: Polarization orbital for state 4s

   izeta = 1
                     rc =    6.308440
                 energy =   -1.063676
                kinetic =    0.818583
    potential(screened) =   -1.882259
       potential(ionic) =   -6.291436
atom: Total number of Sankey-type orbitals: 15

atm_pop: Valence configuration (for local Pseudopot. screening):
 4s( 2.00)                                                            
 4p( 0.00)                                                            
 3d( 6.00)                                                            
Vna: chval, zval:    8.00000   8.00000

Vna:  Cut-off radius for the neutral-atom potential:   6.308440
comcore: Pseudo-core radius Rcore=  3.685395

atom: _________________________________________________________________________

prinput: Basis input ----------------------------------------------------------

PAO.BasisType split     

%block ChemicalSpeciesLabel
    1    7 N                       # Species index, atomic number, species label
    2    6 C                       # Species index, atomic number, species label
    3    1 H                       # Species index, atomic number, species label
    4   26 Fe2                     # Species index, atomic number, species label
%endblock ChemicalSpeciesLabel

%block PAO.Basis                 # Define Basis set
N                     2                    # Species label, number of l-shells
 n=2   0   2                         # n, l, Nzeta 
   4.389      2.942   
   1.000      1.000   
 n=2   1   2 P   1                   # n, l, Nzeta, Polarization, NzetaPol
   5.496      3.092   
   1.000      1.000   
C                     2                    # Species label, number of l-shells
 n=2   0   2                         # n, l, Nzeta 
   4.994      3.475   
   1.000      1.000   
 n=2   1   2 P   1                   # n, l, Nzeta, Polarization, NzetaPol
   6.254      3.746   
   1.000      1.000   
H                     1                    # Species label, number of l-shells
 n=1   0   2 P   1                   # n, l, Nzeta, Polarization, NzetaPol
   6.047      4.053   
   1.000      1.000   
Fe2                   2   2.000            # Label, l-shells, ionic net charge
 n=4   0   2 P   1                   # n, l, Nzeta, Polarization, NzetaPol
   6.308      5.037   
   1.000      1.000   
 n=3   2   2                         # n, l, Nzeta 
   4.229      2.100   
   1.000      1.000   
%endblock PAO.Basis

prinput: ----------------------------------------------------------------------

coor:   Atomic-coordinates input format  =     Fractional

siesta: Atomic coordinates (Bohr) and species
siesta:     12.47098   8.22175  11.99473  1        1
siesta:     11.84486  12.03346   8.42303  1        2
siesta:     12.26285  12.02324  15.55262  1        3
siesta:     12.49215  15.83257  12.00456  1        4
siesta:     12.37816   6.61737   9.89600  2        5
siesta:     11.68378   9.94492   6.79022  2        6
siesta:     12.60385   6.61435  14.03220  2        7
siesta:     11.69850  14.12711   6.79538  2        8
siesta:     11.96408   7.41325   7.46540  2        9
siesta:     12.56371   3.99989  10.67151  2       10
siesta:     11.35731  10.73496   4.24285  2       11
siesta:     12.70211   3.99764  13.24709  2       12
siesta:     11.36664  13.34575   4.24608  2       13
siesta:     12.49606   7.41648  16.53554  2       14
siesta:     11.99509  16.65532   7.47681  2       15
siesta:     12.28575   9.90608  17.21682  2       16
siesta:     12.41136  17.44271   9.90974  2       17
siesta:     12.29399  14.13601  17.22234  2       18
siesta:     12.63051  17.43411  14.04629  2       19
siesta:     12.51571  16.62631  16.54750  2       20
siesta:     12.19667  10.73019  19.80686  2       21
siesta:     12.61042  20.05719  10.69211  2       22
siesta:     12.20147  13.30542  19.81025  2       23
siesta:     12.74422  20.05218  13.26795  2       24
siesta:     11.84083   6.00907   5.97954  3       25
siesta:     12.54519   2.40767   9.39645  3       26
siesta:     11.19062   9.47702   2.64567  3       27
siesta:     12.81916   2.40585  14.51648  3       28
siesta:     11.20898  14.60882   2.65206  3       29
siesta:     12.55044   6.00641  18.01822  3       30
siesta:     11.88199  18.06375   5.99421  3       31
siesta:     12.57537  18.03248  18.03369  3       32
siesta:     12.16999   9.46427  21.40610  3       33
siesta:     12.60273  21.65266   9.42104  3       34
siesta:     12.17953  14.56719  21.41285  3       35
siesta:     12.86790  21.64004  14.54165  3       36
siesta:     12.62675  12.02690  12.02716  4       37

siesta: System type = slab      

initatomlists: Number of atoms, orbitals, and projectors:     37   387   511

coxmol: Writing XMOL coordinates into file ip.xyz                                                              

siesta: ******************** Simulation parameters ****************************
siesta:
siesta: The following are some of the parameters of the simulation.
siesta: A complete list of the parameters used, including default values,
siesta: can be found in file out.fdf
siesta:
redata: Spin configuration                          = none
redata: Number of spin components                   = 1
redata: Time-Reversal Symmetry                      = T
redata: Spin spiral                                 = F
redata: Long output                                 =   F
redata: Number of Atomic Species                    =        4
redata: Charge density info will appear in .RHO file
redata: Write Mulliken Pop.                         = Atomic and Orbital charges
redata: Matel table size (NRTAB)                    =     1024
redata: Mesh Cutoff                                 =   370.0000 Ry
redata: Net charge of the system                    =     0.0000 |e|
redata: Min. number of SCF Iter                     =        0
redata: Max. number of SCF Iter                     =      300
redata: SCF convergence failure will abort job
redata: SCF mix quantity                            = Hamiltonian
redata: Mix DM or H after convergence               =   F
redata: Recompute H after scf cycle                 =   F
redata: Mix DM in first SCF step                    =   T
redata: Write Pulay info on disk                    =   F
redata: New DM Occupancy tolerance                  = 0.000000000001
redata: No kicks to SCF
redata: DM Mixing Weight for Kicks                  =     0.5000
redata: Require Harris convergence for SCF          =   F
redata: Harris energy tolerance for SCF             =     0.000100 eV
redata: Require DM convergence for SCF              =   T
redata: DM tolerance for SCF                        =     0.000010
redata: Require EDM convergence for SCF             =   F
redata: EDM tolerance for SCF                       =     0.001000 eV
redata: Require H convergence for SCF               =   T
redata: Hamiltonian tolerance for SCF               =     0.001000 eV
redata: Require (free) Energy convergence for SCF   =   F
redata: (free) Energy tolerance for SCF             =     0.000100 eV
redata: Using Saved Data (generic)                  =   T
redata: Use continuation files for DM               =   T
redata: Neglect nonoverlap interactions             =   F
redata: Method of Calculation                       = Diagonalization
redata: Electronic Temperature                      =   290.1109 K
redata: Fix the spin of the system                  =   F
redata: Max. number of TDED Iter                    =        1
redata: Number of TDED substeps                     =        3
redata: Dynamics option                             = CG coord. optimization
redata: Variable cell                               =   F
redata: Use continuation files for CG               =   T
redata: Max atomic displ per move                   =     0.1000 Ang
redata: Maximum number of optimization moves        =       50
redata: Force tolerance                             =     0.0400 eV/Ang
mix.SCF: Pulay mixing                            = Pulay
mix.SCF:    Variant                              = stable
mix.SCF:    History steps                        = 4
mix.SCF:    Linear mixing weight                 =     0.020000
mix.SCF:    Mixing weight                        =     0.020000
mix.SCF:    SVD condition                        = 0.1000E-07
redata: ***********************************************************************

%block SCF.Mixers
  Pulay
%endblock SCF.Mixers

%block SCF.Mixer.Pulay
  # Mixing method
  method pulay
  variant stable

  # Mixing options
  weight 0.0200
  weight.linear 0.0200
  history 4
%endblock SCF.Mixer.Pulay

DM_history_depth set to one: no extrapolation allowed by default for geometry relaxation
Size of DM history Fstack: 1
Total number of electrons:   120.000000
Total ionic charge:   120.000000
k-point displ. along   2 input, could be:     0.00    0.50
k-point displ. along   3 input, could be:     0.00    0.50
 Kpoints in:            4 . Kpoints trimmed:            4

siesta: k-point coordinates (Bohr**-1) and weights:
siesta:          1  0.000000E+00  0.000000E+00  0.000000E+00   0.250000E+00
siesta:          2  0.000000E+00  0.130581E+00  0.000000E+00   0.250000E+00
siesta:          3  0.000000E+00  0.000000E+00  0.130581E+00   0.250000E+00
siesta:          4  0.000000E+00  0.130581E+00  0.130581E+00   0.250000E+00

siesta: k-grid: Number of k-points =         4
siesta: k-points from Monkhorst-Pack grid
siesta: k-cutoff (effective) =     6.366 Ang
siesta: k-point supercell and displacements
siesta: k-grid:    1   0   0      0.000
siesta: k-grid:    0   2   0      0.000
siesta: k-grid:    0   0   2      0.000

diag: Algorithm                                     = D&C
diag: Used triangular part                          = Lower
diag: Absolute tolerance                            =  0.100E-15
diag: Orthogonalization factor                      =  0.100E-05
diag: Memory factor                                 =  1.0000
Using current reciprocal lattice vectors for BandLinesScale
Beware any cell changes by the end of the run
Using current reciprocal lattice vectors for BandLinesScale
Beware any cell changes by the end of the run

superc: Internal auxiliary supercell:     1 x     3 x     3  =       9
superc: Number of atoms, orbitals, and projectors:    333   3483   4599


ts: **************************************************************
ts: Save H and S matrices                           =    F
ts: Save DM and EDM matrices                        =    F
ts: Only save the overlap matrix S                  =    F
ts: **************************************************************

************************ Begin: TS CHECKS AND WARNINGS ************************
************************ End: TS CHECKS AND WARNINGS **************************


                     ====================================
                        Begin CG opt. move =      0
                     ====================================

outcoor: Atomic coordinates (fractional):                   
    0.51836038    0.34173974    0.49856496   1       1  N
    0.49233538    0.50017476    0.35010618   1       2  N
    0.50970918    0.49974984    0.64644957   1       3  N
    0.51924014    0.65808588    0.49897340   1       4  N
    0.51450217    0.27505326    0.41133052   2       5  C
    0.48564002    0.41336373    0.28223756   2       6  C
    0.52388305    0.27492756    0.58325291   2       7  C
    0.48625189    0.58719790    0.28245199   2       8  C
    0.49729091    0.30813414    0.31030166   2       9  C
    0.52221471    0.16625687    0.44356468   2      10  C
    0.47207022    0.44620192    0.17635527   2      11  C
    0.52796745    0.16616338    0.55061972   2      12  C
    0.47245824    0.55472028    0.17648956   2      13  C
    0.51940268    0.30826846    0.68730503   2      14  C
    0.49857986    0.69228375    0.31077608   2      15  C
    0.51066119    0.41174960    0.71562284   2      16  C
    0.51588219    0.72501195    0.41190156   2      17  C
    0.51100367    0.58756787    0.71585220   2      18  C
    0.52499133    0.72465455    0.58383882   2      19  C
    0.52021956    0.69107807    0.68780226   2      20  C
    0.50695848    0.44600397    0.82327872   2      21  C
    0.52415639    0.83368349    0.44442087   2      22  C
    0.50715798    0.55304408    0.82341933   2      23  C
    0.52971751    0.83347535    0.55148685   2      24  C
    0.49216807    0.24976894    0.24854162   3      25  H
    0.52144492    0.10007545    0.39056659   3      26  H
    0.46514159    0.39391547    0.10996804   3      27  H
    0.53283268    0.09999999    0.60338217   3      28  H
    0.46590504    0.60722035    0.11023355   3      29  H
    0.52166331    0.24965820    0.74893308   3      30  H
    0.49387881    0.75082570    0.24915117   3      31  H
    0.52269930    0.74952573    0.74957639   3      32  H
    0.50584942    0.39338526    0.88975155   3      33  H
    0.52383667    0.89999998    0.39158851   3      34  H
    0.50624609    0.60548997    0.89003193   3      35  H
    0.53485841    0.89947534    0.60442841   3      36  H
    0.52483505    0.49990222    0.49991283   4      37  Fe2

superc: Internal auxiliary supercell:     1 x     3 x     3  =       9
superc: Number of atoms, orbitals, and projectors:    333   3483   4599

outcell: Unit cell vectors (Ang):
       12.731213    0.000000    0.000000
        0.000000   12.731213    0.000000
        0.000000    0.000000   12.731213

outcell: Cell vector modules (Ang)   :   12.731213   12.731213   12.731213
outcell: Cell angles (23,13,12) (deg):     90.0000     90.0000     90.0000
outcell: Cell volume (Ang**3)        :   2063.5230
<dSpData1D:S at geom step 0
  <sparsity:sparsity for geom step 0
    nrows_g=387 nrows=387 sparsity=1.0883 nnzs=162989, refcount: 7>
  <dData1D:(new from dSpData1D) n=162989, refcount: 1>
refcount: 1>
new_DM -- step:     1
Initializing Density Matrix...

Attempting to read DM from file... Succeeded...
DM from file:
<dSpData2D:IO-DM: ip.DM
  <sparsity:IO-DM: ip.DM
    nrows_g=387 nrows=387 sparsity=1.0883 nnzs=162989, refcount: 1>
  <dData2D:(new from dSpData2D) n=162989 m=1, refcount: 1>
refcount: 1>
DM to be used:
<dSpData2D:Re-structured SpM
  <sparsity:sparsity for geom step 0
    nrows_g=387 nrows=387 sparsity=1.0883 nnzs=162989, refcount: 8>
  <dData2D:(new in restruct) n=162989 m=1, refcount: 1>
refcount: 1>
No. of atoms with KB's overlaping orbs in proc 0. Max # of overlaps:      53     275

InitMesh: MESH = 150 x 150 x 150 = 3375000
InitMesh: Mesh cutoff (required, used) =   370.000   383.658 Ry
New grid distribution [1]: sub = 2

stepf: Fermi-Dirac step function

siesta: Program's energy decomposition (eV):
siesta: Ebs     =     -1503.274969
siesta: Eions   =      6065.232289
siesta: Ena     =       701.455086
siesta: Ekin    =      3866.328977
siesta: Enl     =     -1843.706408
siesta: Eso     =         0.000000
siesta: Edftu   =         0.000000
siesta: DEna    =       -93.071558
siesta: DUscf   =        15.625598
siesta: DUext   =         0.000000
siesta: Ex      =     -1601.596333
siesta: Ec      =      -143.861875
siesta: Exc     =     -1745.458208
siesta: eta*DQ  =         0.000000
siesta: Emadel  =         0.000000
siesta: Emeta   =         0.000000
siesta: Emolmec =         0.000000
siesta: Ekinion =         0.000000
siesta: Eharris =     -5164.058827
siesta: Etot    =     -5164.058800
siesta: FreeEng =     -5164.150901

        iscf     Eharris(eV)        E_KS(eV)     FreeEng(eV)     dDmax    Ef(eV) dHmax(eV)
   scf:    1    -5164.058827    -5164.058800    -5164.150901  0.000939 -4.472719  0.003255
timer: Routine,Calls,Time,% = IterSCF        1      10.528  10.14
   scf:    2    -5164.058786    -5164.058793    -5164.150902  0.000230 -4.472690  0.001535
   scf:    3    -5164.058774    -5164.058783    -5164.150902  0.000307 -4.472671  0.001115
   scf:    4    -5164.058767    -5164.058775    -5164.150902  0.000286 -4.472729  0.000311
   scf:    5    -5164.058772    -5164.058774    -5164.150902  0.000163 -4.472766  0.000094
   scf:    6    -5164.058774    -5164.058774    -5164.150902  0.000004 -4.472766  0.000089

SCF Convergence by DM+H criterion
max |DM_out - DM_in|         :     0.0000035996
max |H_out - H_in|      (eV) :     0.0000886652
SCF cycle converged after 6 iterations

Using DM_out to compute the final energy and forces
No. of atoms with KB's overlaping orbs in proc 0. Max # of overlaps:      53     275

siesta: E_KS(eV) =            -5164.0588

siesta: E_KS - E_eggbox =     -5164.0588

siesta: Atomic forces (eV/Ang):
     1    0.261923    2.331857   -0.469654
     2    0.734896   -0.002508    1.281584
     3    0.609580    0.000621    0.028674
     4    0.249243   -2.328396   -0.476180
     5    0.037318   -0.955652    0.005409
     6   -0.034683   -0.599237   -0.343429
     7    0.097199   -1.049912    1.133672
     8   -0.030999    0.598987   -0.341813
     9   -0.046569    0.452866   -0.318386
    10   -0.014349    0.431029   -0.034636
    11   -0.062304    0.614932   -0.137407
    12   -0.011065    0.410895    0.008480
    13   -0.066240   -0.614703   -0.138925
    14    0.036303   -0.503567   -0.482455
    15   -0.048887   -0.453087   -0.319248
    16   -0.117740    0.701662    0.692840
    17    0.043339    0.956414    0.006166
    18   -0.120688   -0.703485    0.692560
    19    0.101109    1.046635    1.135805
    20    0.038510    0.506462   -0.482619
    21   -0.018435   -0.161583   -0.341791
    22   -0.017453   -0.431795   -0.034445
    23   -0.018348    0.164109   -0.341207
    24   -0.013627   -0.410410    0.006384
    25   -0.027564   -0.449589   -0.490025
    26   -0.014220   -0.590697   -0.480611
    27   -0.087863   -0.473581   -0.600957
    28    0.044164   -0.600187    0.479949
    29   -0.084416    0.475799   -0.599297
    30    0.022860   -0.471722    0.493843
    31   -0.024087    0.451212   -0.488776
    32    0.024598    0.470260    0.494937
    33   -0.006658   -0.473036    0.623251
    34   -0.008308    0.592531   -0.479334
    35   -0.004992    0.471071    0.624922
    36    0.048248    0.598125    0.481616
    37   -1.447722    0.005622   -0.797792
----------------------------------------
   Tot    0.022072    0.007944   -0.008894
----------------------------------------
   Max    2.331857
   Res    0.571496    sqrt( Sum f_i^2 / 3N )
----------------------------------------
   Max    2.331857    constrained

Stress tensor Voigt[x,y,z,yz,xz,xy] (kbar):        0.08      -11.84      -18.95        0.02       -1.05       -0.03
(Free)E + p*V (eV/cell)    -5150.9714
Target enthalpy (eV/cell)    -5164.1509

mulliken: Atomic and Orbital Populations:

Species: N                   
Atom  Qatom  Qorb
               2s      2s      2py     2pz     2px     2py     2pz     2px     
               3Pdxy   3Pdyz   3Pdz2   3Pdxz   3Pdx2-y2
   1  5.053   0.768   0.549   0.787   0.496   1.224   0.437   0.570   0.102
              0.021   0.043   0.023   0.025   0.008
   2  5.065   0.777   0.548   0.534   0.764   1.244   0.536   0.448   0.098
              0.026   0.044   0.016   0.017   0.015
   3  5.043   0.760   0.563   0.560   0.664   1.275   0.511   0.513   0.077
              0.025   0.046   0.015   0.018   0.015
   4  5.053   0.768   0.549   0.786   0.496   1.225   0.437   0.570   0.102
              0.021   0.043   0.023   0.025   0.008

Species: C                   
Atom  Qatom  Qorb
               2s      2s      2py     2pz     2px     2py     2pz     2px     
               3Pdxy   3Pdyz   3Pdz2   3Pdxz   3Pdx2-y2
   5  3.995   0.319   0.598   0.597   0.690   0.578   0.353   0.267   0.342
              0.048   0.064   0.056   0.056   0.028
   6  3.996   0.312   0.601   0.679   0.600   0.583   0.272   0.357   0.337
              0.056   0.064   0.058   0.048   0.027
   7  4.006   0.336   0.588   0.608   0.700   0.570   0.347   0.262   0.341
              0.049   0.063   0.057   0.058   0.027
   8  3.996   0.313   0.601   0.678   0.600   0.583   0.273   0.358   0.337
              0.056   0.064   0.058   0.048   0.027
   9  3.795   0.100   0.723   0.363   0.342   0.648   0.588   0.606   0.289
              0.028   0.047   0.023   0.026   0.013
  10  3.788   0.154   0.683   0.293   0.368   0.684   0.628   0.583   0.258
              0.019   0.047   0.029   0.031   0.010
  11  3.788   0.155   0.682   0.370   0.301   0.679   0.576   0.626   0.262
              0.032   0.046   0.024   0.019   0.016
  12  3.790   0.153   0.683   0.293   0.369   0.686   0.629   0.583   0.260
              0.019   0.047   0.029   0.031   0.010
  13  3.788   0.155   0.682   0.369   0.302   0.679   0.578   0.625   0.262
              0.032   0.046   0.024   0.019   0.016
  14  3.800   0.100   0.720   0.370   0.331   0.660   0.586   0.612   0.287
              0.028   0.047   0.022   0.027   0.012
  15  3.795   0.100   0.722   0.362   0.343   0.649   0.589   0.605   0.289
              0.028   0.047   0.023   0.026   0.013
  16  3.986   0.305   0.606   0.669   0.591   0.583   0.282   0.363   0.334
              0.057   0.065   0.057   0.047   0.027
  17  3.995   0.319   0.598   0.598   0.690   0.578   0.353   0.268   0.342
              0.048   0.064   0.056   0.056   0.028
  18  3.986   0.305   0.606   0.669   0.590   0.584   0.282   0.363   0.334
              0.057   0.065   0.057   0.047   0.027
  19  4.006   0.336   0.588   0.608   0.699   0.570   0.347   0.262   0.341
              0.049   0.063   0.057   0.058   0.027
  20  3.800   0.100   0.720   0.372   0.329   0.660   0.585   0.613   0.287
              0.028   0.047   0.022   0.027   0.012
  21  3.784   0.155   0.683   0.369   0.294   0.672   0.582   0.630   0.263
              0.032   0.047   0.024   0.019   0.015
  22  3.788   0.154   0.683   0.291   0.369   0.684   0.629   0.582   0.258
              0.019   0.047   0.029   0.031   0.010
  23  3.784   0.155   0.683   0.370   0.292   0.672   0.580   0.631   0.263
              0.032   0.047   0.024   0.019   0.015
  24  3.790   0.153   0.683   0.294   0.367   0.685   0.627   0.584   0.260
              0.019   0.047   0.029   0.031   0.010

Species: H                   
Atom  Qatom  Qorb
               1s      1s      2Ppy    2Ppz    2Ppx    
  25  1.238   0.806   0.328   0.032   0.034   0.037
  26  1.256   0.818   0.324   0.042   0.032   0.040
  27  1.256   0.818   0.325   0.032   0.041   0.040
  28  1.257   0.819   0.324   0.042   0.032   0.041
  29  1.256   0.818   0.325   0.032   0.041   0.040
  30  1.240   0.808   0.326   0.032   0.034   0.039
  31  1.238   0.806   0.328   0.032   0.034   0.037
  32  1.240   0.808   0.326   0.032   0.034   0.039
  33  1.254   0.816   0.326   0.032   0.041   0.040
  34  1.256   0.817   0.325   0.042   0.032   0.040
  35  1.254   0.815   0.326   0.032   0.041   0.040
  36  1.257   0.819   0.324   0.042   0.032   0.041

Species: Fe2                 
Atom  Qatom  Qorb
               4s      4s      3dxy    3dyz    3dz2    3dxz    3dx2-y2 3dxy    
               3dyz    3dz2    3dxz    3dx2-y2 4Ppy    4Ppz    4Ppx    
  37  7.329   0.704   0.009   1.394   1.947   0.910   1.096   1.199  -0.063
             -0.067  -0.042  -0.044  -0.044   0.114   0.132   0.084

mulliken: Qtot =      120.000

iocg: Reading CG continuation file

                     ====================================
                        Begin CG opt. move =      1
                     ====================================

outcoor: Atomic coordinates (fractional):                   
    0.51657902    0.34245415    0.49837636   1       1  N
    0.49268954    0.50016208    0.34833668   1       2  N
    0.50990486    0.49976182    0.64756240   1       3  N
    0.51745214    0.65738104    0.49876657   1       4  N
    0.51355479    0.27473241    0.41065296   2       5  C
    0.48603594    0.41256956    0.28068139   2       6  C
    0.52305191    0.27549511    0.58364726   2       7  C
    0.48665678    0.58800596    0.28090869   2       8  C
    0.49826828    0.30779355    0.30992317   2       9  C
    0.52238059    0.16722113    0.44257466   2      10  C
    0.47252190    0.44595114    0.17427195   2      11  C
    0.52823048    0.16614870    0.55082827   2      12  C
    0.47291431    0.55495697    0.17439784   2      13  C
    0.52029065    0.30867769    0.68851707   2      14  C
    0.49954954    0.69261200    0.31040254   2      15  C
    0.51103762    0.41210140    0.71653983   2      16  C
    0.51494116    0.72534731    0.41124197   2      17  C
    0.51137873    0.58721504    0.71676876   2      18  C
    0.52415895    0.72408431    0.58424534   2      19  C
    0.52110352    0.69067119    0.68900462   2      20  C
    0.50770891    0.44533255    0.82554154   2      21  C
    0.52432913    0.83271290    0.44342364   2      22  C
    0.50791324    0.55372440    0.82566412   2      23  C
    0.52999398    0.83348666    0.55170559   2      24  C
    0.49232113    0.25019428    0.24908742   3      25  H
    0.52143914    0.10029888    0.39077901   3      26  H
    0.46419848    0.39397984    0.10831154   3      27  H
    0.53311648    0.09998604    0.60370831   3      28  H
    0.46495735    0.60717687    0.10856127   3      29  H
    0.52146506    0.24934055    0.74879228   3      30  H
    0.49401510    0.75037925    0.24969534   3      31  H
    0.52250617    0.74984743    0.74944151   3      32  H
    0.50573368    0.39322077    0.89178766   3      33  H
    0.52385825    0.89978290    0.39179531   3      34  H
    0.50612852    0.60564150    0.89206412   3      35  H
    0.53517128    0.89948835    0.60475770   3      36  H
    0.52509436    0.49992050    0.50100607   4      37  Fe2

superc: Internal auxiliary supercell:     1 x     3 x     3  =       9
superc: Number of atoms, orbitals, and projectors:    333   3483   4599

outcell: Unit cell vectors (Ang):
       12.731213    0.000000    0.000000
        0.000000   12.731213    0.000000
        0.000000    0.000000   12.731213

outcell: Cell vector modules (Ang)   :   12.731213   12.731213   12.731213
outcell: Cell angles (23,13,12) (deg):     90.0000     90.0000     90.0000
outcell: Cell volume (Ang**3)        :   2063.5230
<dSpData1D:S at geom step 1
  <sparsity:sparsity for geom step 1
    nrows_g=387 nrows=387 sparsity=1.0873 nnzs=162849, refcount: 7>
  <dData1D:(new from dSpData1D) n=162849, refcount: 1>
refcount: 1>
new_DM -- step:     2
Re-using DM from previous geometries...
Number of DMs in history: 1
 DM extrapolation coefficients: 
1   1.00000
New DM after history re-use:
<dSpData2D:SpM extrapolated using coords
  <sparsity:sparsity for geom step 1
    nrows_g=387 nrows=387 sparsity=1.0873 nnzs=162849, refcount: 9>
  <dData2D:(temp array for extrapolation) n=162849 m=1, refcount: 1>
refcount: 1>
No. of atoms with KB's overlaping orbs in proc 0. Max # of overlaps:      53     271

InitMesh: MESH = 150 x 150 x 150 = 3375000
InitMesh: Mesh cutoff (required, used) =   370.000   383.658 Ry
New grid distribution [1]: sub = 2

        iscf     Eharris(eV)        E_KS(eV)     FreeEng(eV)     dDmax    Ef(eV) dHmax(eV)
   scf:    1    -5163.992222    -5163.839819    -5163.929468  0.382074 -4.510387  0.611041
   scf:    2    -5156.814424    -5161.855352    -5161.856320  1.071483 -4.474964  6.918776
   scf:    3    -5164.623746    -5163.895646    -5163.973622  0.475422 -4.507590  1.501242
   scf:    4    -5163.782327    -5163.841651    -5163.914584  0.056473 -4.509260  1.846418
   scf:    5    -5163.807176    -5163.825592    -5163.895921  0.027033 -4.502261  1.885760
   scf:    6    -5164.000849    -5164.028193    -5164.121883  0.374257 -4.478461  0.286117
   scf:    7    -5164.029507    -5164.030253    -5164.122999  0.037463 -4.484178  0.091135
   scf:    8    -5164.026075    -5164.030357    -5164.124123  0.061795 -4.488880  0.078894
   scf:    9    -5164.031828    -5164.031231    -5164.124811  0.015786 -4.487271  0.044304
   scf:   10    -5164.031824    -5164.031573    -5164.125028  0.008752 -4.486065  0.032790
   scf:   11    -5164.031978    -5164.031838    -5164.125143  0.009660 -4.485983  0.026666
   scf:   12    -5164.031869    -5164.031861    -5164.125215  0.002660 -4.486266  0.023842
   scf:   13    -5164.031763    -5164.031828    -5164.125285  0.004375 -4.485976  0.015540
   scf:   14    -5164.031836    -5164.031833    -5164.125296  0.000925 -4.485941  0.014857
   scf:   15    -5164.031810    -5164.031841    -5164.125321  0.005701 -4.485956  0.009012
   scf:   16    -5164.031860    -5164.031851    -5164.125331  0.000788 -4.486079  0.007330
   scf:   17    -5164.031853    -5164.031854    -5164.125343  0.001874 -4.486216  0.005186
   scf:   18    -5164.031844    -5164.031849    -5164.125346  0.000366 -4.486248  0.004205
   scf:   19    -5164.031853    -5164.031852    -5164.125346  0.000822 -4.486351  0.004035
   scf:   20    -5164.031866    -5164.031859    -5164.125348  0.000259 -4.486413  0.002548
   scf:   21    -5164.031884    -5164.031873    -5164.125350  0.001599 -4.486533  0.002504
   scf:   22    -5164.031876    -5164.031874    -5164.125350  0.000452 -4.486568  0.002340
   scf:   23    -5164.031875    -5164.031875    -5164.125351  0.000231 -4.486633  0.002017
   scf:   24    -5164.031878    -5164.031876    -5164.125351  0.000482 -4.486687  0.001885
   scf:   25    -5164.031883    -5164.031880    -5164.125351  0.000133 -4.486744  0.001633
   scf:   26    -5164.031885    -5164.031882    -5164.125351  0.000497 -4.486780  0.001068
   scf:   27    -5164.031881    -5164.031881    -5164.125351  0.000180 -4.486786  0.000798
   scf:   28    -5164.031879    -5164.031880    -5164.125352  0.000249 -4.486786  0.000559
   scf:   29    -5164.031878    -5164.031879    -5164.125352  0.000451 -4.486801  0.000501
   scf:   30    -5164.031880    -5164.031880    -5164.125352  0.000020 -4.486804  0.000451
   scf:   31    -5164.031881    -5164.031881    -5164.125352  0.000273 -4.486799  0.000393
   scf:   32    -5164.031880    -5164.031880    -5164.125352  0.000021 -4.486791  0.000305
   scf:   33    -5164.031877    -5164.031879    -5164.125352  0.000219 -4.486780  0.000326
   scf:   34    -5164.031878    -5164.031878    -5164.125352  0.000142 -4.486776  0.000324
   scf:   35    -5164.031879    -5164.031879    -5164.125352  0.000084 -4.486770  0.000305
   scf:   36    -5164.031879    -5164.031879    -5164.125352  0.000083 -4.486761  0.000277
   scf:   37    -5164.031878    -5164.031879    -5164.125352  0.000020 -4.486746  0.000216
   scf:   38    -5164.031878    -5164.031878    -5164.125352  0.000079 -4.486736  0.000171
   scf:   39    -5164.031879    -5164.031878    -5164.125352  0.000019 -4.486731  0.000177
   scf:   40    -5164.031879    -5164.031879    -5164.125352  0.000074 -4.486727  0.000128
   scf:   41    -5164.031879    -5164.031879    -5164.125352  0.000066 -4.486720  0.000121
   scf:   42    -5164.031879    -5164.031879    -5164.125352  0.000007 -4.486714  0.000108

SCF Convergence by DM+H criterion
max |DM_out - DM_in|         :     0.0000071844
max |H_out - H_in|      (eV) :     0.0001077247
SCF cycle converged after 42 iterations

Using DM_out to compute the final energy and forces
No. of atoms with KB's overlaping orbs in proc 0. Max # of overlaps:      53     271

siesta: E_KS(eV) =            -5164.0319

siesta: Atomic forces (eV/Ang):
     1    0.342885    1.858382   -0.306159
     2    0.786011    0.006421    1.364767
     3    0.634907   -0.006867    0.054242
     4    0.333344   -1.850895   -0.297923
     5    0.144948   -0.387132    0.561195
     6    0.010977    0.012437   -0.365788
     7    0.155414   -1.140323    0.976880
     8    0.006765   -0.034906   -0.376138
     9   -0.209566    0.905019   -0.403540
    10    0.004812   -0.053929    0.871859
    11   -0.033382    0.930176    0.288205
    12   -0.103737    0.872833   -0.514317
    13   -0.040050   -0.917564    0.289943
    14   -0.090049   -0.468033   -1.112534
    15   -0.211322   -0.895077   -0.393809
    16   -0.074801    0.529481    1.218284
    17    0.143700    0.377906    0.541788
    18   -0.076768   -0.520554    1.211843
    19    0.160401    1.141509    0.964373
    20   -0.087307    0.464139   -1.095581
    21   -0.037513    0.928023   -0.935360
    22    0.004196    0.062276    0.881733
    23   -0.042610   -0.929060   -0.923977
    24   -0.108205   -0.873874   -0.524347
    25   -0.019523   -0.866107   -0.893589
    26   -0.000797   -0.617730   -0.585949
    27   -0.094688   -0.587538   -0.770977
    28    0.057209   -0.588588    0.422801
    29   -0.089551    0.583200   -0.761946
    30    0.066823   -0.584449    0.697477
    31   -0.013246    0.871181   -0.893141
    32    0.068833    0.580645    0.696195
    33    0.003557   -0.649614    0.772168
    34    0.005269    0.614195   -0.581179
    35    0.006134    0.649637    0.774368
    36    0.061337    0.587009    0.424979
    37   -1.641284    0.000791   -1.312815
----------------------------------------
   Tot    0.023127    0.003018   -0.035969
----------------------------------------
   Max    1.858382
   Res    0.663914    sqrt( Sum f_i^2 / 3N )
----------------------------------------
   Max    1.858382    constrained

Stress tensor Voigt[x,y,z,yz,xz,xy] (kbar):        0.14      -10.59      -15.41        0.01       -0.90       -0.03
(Free)E + p*V (eV/cell)    -5153.0229
Target enthalpy (eV/cell)    -5164.1254

mulliken: Atomic and Orbital Populations:

Species: N                   
Atom  Qatom  Qorb
               2s      2s      2py     2pz     2px     2py     2pz     2px     
               3Pdxy   3Pdyz   3Pdz2   3Pdxz   3Pdx2-y2
   1  5.063   0.786   0.539   0.788   0.514   1.239   0.432   0.552   0.094
              0.020   0.043   0.022   0.025   0.008
   2  5.081   0.808   0.529   0.539   0.808   1.249   0.528   0.415   0.091
              0.025   0.042   0.016   0.016   0.015
   3  5.034   0.746   0.571   0.549   0.652   1.268   0.522   0.524   0.083
              0.025   0.047   0.015   0.019   0.015
   4  5.063   0.786   0.540   0.787   0.514   1.239   0.433   0.553   0.094
              0.020   0.043   0.022   0.025   0.008

Species: C                   
Atom  Qatom  Qorb
               2s      2s      2py     2pz     2px     2py     2pz     2px     
               3Pdxy   3Pdyz   3Pdz2   3Pdxz   3Pdx2-y2
   5  3.989   0.307   0.602   0.597   0.681   0.575   0.356   0.273   0.346
              0.049   0.065   0.056   0.055   0.027
   6  3.992   0.317   0.602   0.671   0.592   0.588   0.277   0.360   0.334
              0.055   0.064   0.057   0.047   0.027
   7  4.003   0.342   0.589   0.604   0.688   0.577   0.350   0.269   0.333
              0.049   0.063   0.057   0.057   0.027
   8  3.991   0.317   0.602   0.670   0.592   0.588   0.277   0.360   0.334
              0.055   0.064   0.057   0.047   0.027
   9  3.791   0.086   0.727   0.360   0.342   0.640   0.593   0.611   0.294
              0.028   0.047   0.023   0.026   0.012
  10  3.789   0.152   0.686   0.285   0.377   0.684   0.637   0.573   0.258
              0.020   0.047   0.029   0.031   0.011
  11  3.788   0.153   0.685   0.367   0.298   0.683   0.578   0.627   0.260
              0.031   0.046   0.024   0.019   0.016
  12  3.789   0.161   0.683   0.295   0.363   0.695   0.625   0.583   0.251
              0.019   0.045   0.028   0.030   0.010
  13  3.788   0.153   0.685   0.365   0.299   0.684   0.579   0.626   0.259
              0.031   0.046   0.024   0.019   0.016
  14  3.799   0.098   0.721   0.359   0.335   0.662   0.595   0.608   0.285
              0.028   0.047   0.022   0.026   0.011
  15  3.791   0.086   0.727   0.359   0.343   0.640   0.594   0.611   0.294
              0.028   0.047   0.023   0.027   0.013
  16  3.990   0.311   0.603   0.673   0.591   0.583   0.280   0.361   0.333
              0.058   0.065   0.058   0.047   0.027
  17  3.989   0.307   0.602   0.597   0.681   0.574   0.355   0.273   0.347
              0.049   0.065   0.056   0.055   0.027
  18  3.991   0.311   0.603   0.674   0.591   0.583   0.279   0.361   0.333
              0.058   0.065   0.058   0.047   0.027
  19  4.003   0.341   0.589   0.604   0.688   0.577   0.350   0.268   0.333
              0.048   0.063   0.057   0.057   0.027
  20  3.799   0.098   0.721   0.361   0.334   0.662   0.594   0.609   0.285
              0.028   0.047   0.022   0.026   0.012
  21  3.781   0.158   0.686   0.366   0.289   0.681   0.581   0.632   0.254
              0.031   0.046   0.024   0.019   0.016
  22  3.789   0.152   0.686   0.284   0.378   0.684   0.638   0.572   0.258
              0.020   0.047   0.029   0.031   0.011
  23  3.781   0.157   0.686   0.367   0.288   0.681   0.580   0.633   0.254
              0.031   0.047   0.024   0.019   0.016
  24  3.789   0.161   0.683   0.297   0.362   0.695   0.624   0.583   0.252
              0.019   0.045   0.028   0.030   0.010

Species: H                   
Atom  Qatom  Qorb
               1s      1s      2Ppy    2Ppz    2Ppx    
  25  1.244   0.811   0.328   0.032   0.035   0.038
  26  1.256   0.817   0.325   0.042   0.032   0.041
  27  1.258   0.819   0.325   0.032   0.041   0.041
  28  1.256   0.817   0.324   0.041   0.032   0.041
  29  1.257   0.819   0.325   0.032   0.041   0.041
  30  1.242   0.809   0.327   0.033   0.034   0.039
  31  1.244   0.811   0.328   0.033   0.035   0.038
  32  1.242   0.809   0.327   0.033   0.034   0.039
  33  1.255   0.815   0.326   0.032   0.041   0.040
  34  1.256   0.816   0.325   0.042   0.032   0.041
  35  1.255   0.815   0.327   0.032   0.041   0.040
  36  1.256   0.817   0.324   0.041   0.032   0.041

Species: Fe2                 
Atom  Qatom  Qorb
               4s      4s      3dxy    3dyz    3dz2    3dxz    3dx2-y2 3dxy    
               3dyz    3dz2    3dxz    3dx2-y2 4Ppy    4Ppz    4Ppx    
  37  7.320   0.697   0.009   1.354   1.948   0.903   1.136   1.202  -0.060
             -0.067  -0.042  -0.046  -0.044   0.115   0.131   0.083

mulliken: Qtot =      120.000

                     ====================================
                        Begin CG opt. move =      2
                     ====================================

outcoor: Atomic coordinates (fractional):                   
    0.51771202    0.34199976    0.49849631   1       1  N
    0.49246428    0.50017015    0.34946214   1       2  N
    0.50978040    0.49975420    0.64685460   1       3  N
    0.51858937    0.65782934    0.49889812   1       4  N
    0.51415736    0.27493648    0.41108391   2       5  C
    0.48578412    0.41307468    0.28167117   2       6  C
    0.52358054    0.27513413    0.58339644   2       7  C
    0.48639926    0.58749201    0.28189028   2       8  C
    0.49764664    0.30801018    0.31016390   2       9  C
    0.52227508    0.16660783    0.44320435   2      10  C
    0.47223462    0.44611065    0.17559702   2      11  C
    0.52806318    0.16615804    0.55069563   2      12  C
    0.47262423    0.55480643    0.17572825   2      13  C
    0.51972587    0.30841741    0.68774617   2      14  C
    0.49893279    0.69240322    0.31064013   2      15  C
    0.51079819    0.41187764    0.71595659   2      16  C
    0.51553969    0.72513401    0.41166149   2      17  C
    0.51114018    0.58743945    0.71618580   2      18  C
    0.52468838    0.72444701    0.58398678   2      19  C
    0.52054129    0.69092998    0.68823988   2      20  C
    0.50723161    0.44575960    0.82410231   2      21  C
    0.52421926    0.83333023    0.44405791   2      22  C
    0.50743287    0.55329170    0.82423636   2      23  C
    0.52981813    0.83347947    0.55156646   2      24  C
    0.49222378    0.24992375    0.24874028   3      25  H
    0.52144282    0.10015677    0.39064390   3      26  H
    0.46479833    0.39393890    0.10936513   3      27  H
    0.53293598    0.09999492    0.60350087   3      28  H
    0.46556011    0.60720453    0.10962489   3      29  H
    0.52159115    0.24954259    0.74888183   3      30  H
    0.49392842    0.75066321    0.24934923   3      31  H
    0.52262901    0.74964281    0.74952730   3      32  H
    0.50580730    0.39332539    0.89049263   3      33  H
    0.52384452    0.89992097    0.39166378   3      34  H
    0.50620330    0.60554512    0.89077158   3      35  H
    0.53497228    0.89948007    0.60454826   3      36  H
    0.52492943    0.49990887    0.50031073   4      37  Fe2

superc: Internal auxiliary supercell:     1 x     3 x     3  =       9
superc: Number of atoms, orbitals, and projectors:    333   3483   4599

outcell: Unit cell vectors (Ang):
       12.731213    0.000000    0.000000
        0.000000   12.731213    0.000000
        0.000000    0.000000   12.731213

outcell: Cell vector modules (Ang)   :   12.731213   12.731213   12.731213
outcell: Cell angles (23,13,12) (deg):     90.0000     90.0000     90.0000
outcell: Cell volume (Ang**3)        :   2063.5230
<dSpData1D:S at geom step 2
  <sparsity:sparsity for geom step 2
    nrows_g=387 nrows=387 sparsity=1.0845 nnzs=162425, refcount: 7>
  <dData1D:(new from dSpData1D) n=162425, refcount: 1>
refcount: 1>
new_DM -- step:     3
Re-using DM from previous geometries...
Number of DMs in history: 1
 DM extrapolation coefficients: 
1   1.00000
New DM after history re-use:
<dSpData2D:SpM extrapolated using coords
  <sparsity:sparsity for geom step 2
    nrows_g=387 nrows=387 sparsity=1.0845 nnzs=162425, refcount: 9>
  <dData2D:(temp array for extrapolation) n=162425 m=1, refcount: 1>
refcount: 1>
No. of atoms with KB's overlaping orbs in proc 0. Max # of overlaps:      53     271

InitMesh: MESH = 150 x 150 x 150 = 3375000
InitMesh: Mesh cutoff (required, used) =   370.000   383.658 Ry
New grid distribution [1]: sub = 2

        iscf     Eharris(eV)        E_KS(eV)     FreeEng(eV)     dDmax    Ef(eV) dHmax(eV)
   scf:    1    -5163.513834    -5164.006058    -5164.089094  0.222327 -4.459893  0.559446
   scf:    2    -5159.670021    -5162.723416    -5162.771783  1.116993 -4.216386  4.804021
   scf:    3    -5164.421045    -5163.968888    -5164.063542  0.795478 -4.436490  1.699537
   scf:    4    -5163.593135    -5163.802120    -5163.892891  0.150724 -4.415273  2.731352
   scf:    5    -5163.907359    -5163.856371    -5163.948414  0.031744 -4.424803  2.382635
   scf:    6    -5163.871576    -5163.864299    -5163.956217  0.017110 -4.429219  2.252573
   scf:    7    -5163.959577    -5164.060960    -5164.150678  0.397890 -4.485808  0.531218
   scf:    8    -5164.065719    -5164.069805    -5164.162564  0.082586 -4.475306  0.057356
   scf:    9    -5164.069670    -5164.070105    -5164.162399  0.014839 -4.479906  0.099277
   scf:   10    -5164.069799    -5164.070093    -5164.162766  0.012547 -4.478641  0.022919
   scf:   11    -5164.070283    -5164.070224    -5164.162819  0.006598 -4.478019  0.016997
   scf:   12    -5164.070230    -5164.070228    -5164.162834  0.000727 -4.478154  0.013349
   scf:   13    -5164.070129    -5164.070192    -5164.162876  0.004296 -4.478744  0.008828
   scf:   14    -5164.070175    -5164.070184    -5164.162879  0.000363 -4.478683  0.007840
   scf:   15    -5164.070215    -5164.070200    -5164.162887  0.000507 -4.478511  0.004415
   scf:   16    -5164.070241    -5164.070221    -5164.162891  0.000658 -4.478444  0.002615
   scf:   17    -5164.070232    -5164.070227    -5164.162893  0.000758 -4.478448  0.002127
   scf:   18    -5164.070225    -5164.070226    -5164.162894  0.000065 -4.478428  0.002145
   scf:   19    -5164.070216    -5164.070221    -5164.162894  0.000235 -4.478222  0.001107
   scf:   20    -5164.070226    -5164.070224    -5164.162895  0.000114 -4.478197  0.000978
   scf:   21    -5164.070227    -5164.070226    -5164.162895  0.000055 -4.478194  0.000622
   scf:   22    -5164.070222    -5164.070224    -5164.162895  0.000100 -4.478199  0.000486
   scf:   23    -5164.070219    -5164.070222    -5164.162895  0.000080 -4.478184  0.000531
   scf:   24    -5164.070220    -5164.070221    -5164.162895  0.000025 -4.478171  0.000533
   scf:   25    -5164.070225    -5164.070223    -5164.162895  0.000114 -4.478166  0.000422
   scf:   26    -5164.070223    -5164.070223    -5164.162895  0.000009 -4.478171  0.000383

SCF Convergence by DM+H criterion
max |DM_out - DM_in|         :     0.0000090034
max |H_out - H_in|      (eV) :     0.0003834721
SCF cycle converged after 26 iterations

Using DM_out to compute the final energy and forces
No. of atoms with KB's overlaping orbs in proc 0. Max # of overlaps:      53     271

siesta: E_KS(eV) =            -5164.0702

siesta: Atomic forces (eV/Ang):
     1    0.291037    2.157129   -0.411682
     2    0.755441    0.002555    1.316678
     3    0.618919   -0.002745    0.038080
     4    0.279333   -2.151985   -0.412636
     5    0.079109   -0.750331    0.213726
     6   -0.018026   -0.373195   -0.352392
     7    0.117382   -1.081957    1.074791
     8   -0.017036    0.364559   -0.354376
     9   -0.107981    0.612723   -0.352352
    10   -0.008002    0.260095    0.301681
    11   -0.052421    0.730027    0.019521
    12   -0.044587    0.578877   -0.188235
    13   -0.057210   -0.725784    0.019296
    14   -0.009363   -0.492205   -0.713954
    15   -0.110080   -0.609127   -0.349726
    16   -0.102359    0.640745    0.886231
    17    0.082131    0.748167    0.205246
    18   -0.104940   -0.639235    0.883283
    19    0.121713    1.080274    1.071585
    20   -0.006873    0.491498   -0.707094
    21   -0.025597    0.241861   -0.558740
    22   -0.010228   -0.257345    0.305442
    23   -0.027382   -0.241423   -0.555285
    24   -0.047837   -0.578978   -0.193627
    25   -0.023519   -0.597895   -0.633620
    26   -0.009368   -0.601102   -0.519728
    27   -0.089621   -0.515494   -0.663162
    28    0.048885   -0.595928    0.458932
    29   -0.085529    0.515208   -0.658856
    30    0.039624   -0.512548    0.568880
    31   -0.019054    0.600598   -0.632626
    32    0.041440    0.510156    0.569037
    33   -0.002310   -0.536905    0.676296
    34   -0.003396    0.601036   -0.517312
    35   -0.000265    0.536102    0.678464
    36    0.053005    0.594215    0.460860
    37   -1.521297    0.003767   -0.993729
----------------------------------------
   Tot    0.023739    0.005411   -0.021103
----------------------------------------
   Max    2.157129
   Res    0.584993    sqrt( Sum f_i^2 / 3N )
----------------------------------------
   Max    2.157129    constrained

Stress tensor Voigt[x,y,z,yz,xz,xy] (kbar):        0.10      -11.36      -17.61        0.01       -0.99       -0.03
(Free)E + p*V (eV/cell)    -5151.7684
Target enthalpy (eV/cell)    -5164.1629

mulliken: Atomic and Orbital Populations:

Species: N                   
Atom  Qatom  Qorb
               2s      2s      2py     2pz     2px     2py     2pz     2px     
               3Pdxy   3Pdyz   3Pdz2   3Pdxz   3Pdx2-y2
   1  5.057   0.775   0.545   0.787   0.503   1.230   0.435   0.564   0.099
              0.020   0.043   0.023   0.025   0.008
   2  5.071   0.788   0.541   0.536   0.780   1.246   0.533   0.436   0.095
              0.026   0.043   0.016   0.017   0.015
   3  5.039   0.755   0.566   0.556   0.659   1.273   0.515   0.517   0.080
              0.025   0.046   0.015   0.019   0.015
   4  5.056   0.775   0.545   0.786   0.503   1.230   0.436   0.564   0.099
              0.020   0.043   0.023   0.025   0.008

Species: C                   
Atom  Qatom  Qorb
               2s      2s      2py     2pz     2px     2py     2pz     2px     
               3Pdxy   3Pdyz   3Pdz2   3Pdxz   3Pdx2-y2
   5  3.993   0.315   0.599   0.597   0.687   0.577   0.354   0.269   0.344
              0.048   0.065   0.056   0.056   0.028
   6  3.994   0.314   0.602   0.676   0.597   0.585   0.274   0.358   0.336
              0.056   0.064   0.057   0.048   0.027
   7  4.005   0.338   0.589   0.607   0.695   0.573   0.348   0.264   0.338
              0.049   0.063   0.057   0.058   0.027
   8  3.994   0.314   0.602   0.676   0.597   0.585   0.274   0.358   0.336
              0.056   0.064   0.057   0.048   0.027
   9  3.793   0.095   0.724   0.362   0.342   0.645   0.590   0.608   0.291
              0.028   0.047   0.023   0.026   0.013
  10  3.788   0.153   0.684   0.290   0.371   0.684   0.632   0.579   0.258
              0.020   0.047   0.029   0.031   0.010
  11  3.788   0.154   0.683   0.369   0.300   0.680   0.577   0.626   0.261
              0.031   0.046   0.024   0.019   0.016
  12  3.789   0.156   0.683   0.294   0.366   0.689   0.627   0.583   0.257
              0.019   0.046   0.028   0.030   0.010
  13  3.788   0.154   0.683   0.367   0.301   0.681   0.578   0.625   0.261
              0.031   0.046   0.024   0.019   0.016
  14  3.800   0.099   0.720   0.366   0.332   0.661   0.589   0.611   0.286
              0.028   0.047   0.022   0.027   0.012
  15  3.794   0.095   0.724   0.361   0.343   0.645   0.591   0.607   0.291
              0.028   0.047   0.023   0.026   0.013
  16  3.988   0.308   0.605   0.670   0.591   0.583   0.281   0.362   0.334
              0.058   0.065   0.058   0.047   0.027
  17  3.993   0.315   0.599   0.597   0.686   0.577   0.354   0.270   0.344
              0.048   0.065   0.056   0.056   0.028
  18  3.988   0.307   0.605   0.671   0.591   0.583   0.281   0.362   0.334
              0.058   0.065   0.058   0.047   0.027
  19  4.005   0.338   0.589   0.607   0.696   0.572   0.348   0.264   0.338
              0.049   0.063   0.057   0.058   0.027
  20  3.799   0.099   0.720   0.368   0.331   0.660   0.588   0.612   0.286
              0.028   0.047   0.022   0.026   0.012
  21  3.783   0.156   0.684   0.368   0.292   0.675   0.581   0.631   0.259
              0.031   0.047   0.024   0.019   0.015
  22  3.788   0.153   0.684   0.289   0.373   0.684   0.633   0.578   0.258
              0.019   0.047   0.029   0.031   0.010
  23  3.783   0.156   0.684   0.369   0.291   0.675   0.580   0.632   0.259
              0.032   0.047   0.024   0.019   0.016
  24  3.789   0.156   0.683   0.295   0.365   0.689   0.626   0.584   0.257
              0.019   0.046   0.028   0.030   0.010

Species: H                   
Atom  Qatom  Qorb
               1s      1s      2Ppy    2Ppz    2Ppx    
  25  1.240   0.808   0.328   0.032   0.035   0.038
  26  1.256   0.817   0.325   0.042   0.032   0.041
  27  1.256   0.818   0.325   0.032   0.041   0.041
  28  1.257   0.818   0.324   0.042   0.032   0.041
  29  1.257   0.818   0.325   0.032   0.041   0.041
  30  1.240   0.809   0.327   0.032   0.034   0.039
  31  1.240   0.808   0.328   0.032   0.034   0.038
  32  1.240   0.809   0.327   0.032   0.034   0.039
  33  1.254   0.815   0.326   0.032   0.041   0.040
  34  1.256   0.817   0.325   0.042   0.032   0.040
  35  1.254   0.815   0.326   0.032   0.041   0.040
  36  1.257   0.818   0.324   0.041   0.032   0.041

Species: Fe2                 
Atom  Qatom  Qorb
               4s      4s      3dxy    3dyz    3dz2    3dxz    3dx2-y2 3dxy    
               3dyz    3dz2    3dxz    3dx2-y2 4Ppy    4Ppz    4Ppx    
  37  7.325   0.701   0.009   1.380   1.948   0.907   1.111   1.200  -0.062
             -0.067  -0.042  -0.044  -0.044   0.114   0.132   0.083

mulliken: Qtot =      120.000

cgvc: Finished line minimization   19.  Mean atomic displacement =    0.0565

                     ====================================
                        Begin CG opt. move =      3
                     ====================================

outcoor: Atomic coordinates (fractional):                   
    0.51485564    0.34340157    0.49814402   1       1  N
    0.49312383    0.50014987    0.34674057   1       2  N
    0.51016753    0.49977331    0.64866381   1       3  N
    0.51572088    0.65644362    0.49851616   1       4  N
    0.51262972    0.27433152    0.41000906   2       5  C
    0.48642424    0.41174457    0.27910749   2       6  C
    0.52224575    0.27593271    0.58415716   2       7  C
    0.48705403    0.58884370    0.27934726   2       8  C
    0.49921967    0.30752682    0.30951031   2       9  C
    0.52254322    0.16820108    0.44163263   2      10  C
    0.47296130    0.44578618    0.17222028   2      11  C
    0.52848476    0.16619947    0.55101266   2      12  C
    0.47335747    0.55510852    0.17233784   2      13  C
    0.52116502    0.30902567    0.68963151   2      14  C
    0.50049310    0.69286696    0.30999487   2      15  C
    0.51139719    0.41252044    0.71754374   2      16  C
    0.51402267    0.72576226    0.41061482   2      17  C
    0.51173665    0.58679515    0.71777192   2      18  C
    0.52335205    0.72364388    0.58476689   2      19  C
    0.52197420    0.69032546    0.69011031   2      20  C
    0.50844584    0.44469787    0.82770941   2      21  C
    0.52449827    0.83172702    0.44247492   2      22  C
    0.50865474    0.55436791    0.82781461   2      23  C
    0.53026116    0.83343256    0.55189942   2      24  C
    0.49246938    0.25054623    0.24955410   3      25  H
    0.52143240    0.10045141    0.39092985   3      26  H
    0.46325859    0.39398519    0.10660371   3      27  H
    0.53340178    0.09990513    0.60408155   3      28  H
    0.46401341    0.60719207    0.10683837   3      29  H
    0.52127407    0.24896963    0.74871759   3      30  H
    0.49414732    0.75000679    0.25016052   3      31  H
    0.52232045    0.75022208    0.74937267   3      32  H
    0.50561932    0.39299809    0.89387120   3      33  H
    0.52387913    0.89963663    0.39194089   3      34  H
    0.50601259    0.60585130    0.89414405   3      35  H
    0.53548571    0.89956815    0.60513427   3      36  H
    0.52517855    0.49993895    0.50197187   4      37  Fe2

superc: Internal auxiliary supercell:     1 x     3 x     3  =       9
superc: Number of atoms, orbitals, and projectors:    333   3483   4599

outcell: Unit cell vectors (Ang):
       12.731213    0.000000    0.000000
        0.000000   12.731213    0.000000
        0.000000    0.000000   12.731213

outcell: Cell vector modules (Ang)   :   12.731213   12.731213   12.731213
[...]
              0.031   0.047   0.024   0.020   0.015
  22  3.796   0.174   0.678   0.301   0.373   0.686   0.618   0.574   0.256
              0.019   0.046   0.029   0.031   0.010
  23  3.797   0.174   0.677   0.371   0.306   0.683   0.576   0.617   0.257
              0.031   0.047   0.024   0.020   0.015
  24  3.796   0.171   0.678   0.299   0.377   0.683   0.621   0.571   0.259
              0.020   0.047   0.029   0.031   0.010

Species: H                   
Atom  Qatom  Qorb
               1s      1s      2Ppy    2Ppz    2Ppx    
  25  1.228   0.798   0.328   0.032   0.033   0.037
  26  1.245   0.807   0.326   0.041   0.032   0.039
  27  1.243   0.804   0.328   0.032   0.040   0.038
  28  1.246   0.807   0.327   0.041   0.031   0.039
  29  1.243   0.805   0.328   0.032   0.040   0.038
  30  1.230   0.799   0.329   0.032   0.033   0.037
  31  1.228   0.798   0.328   0.032   0.033   0.037
  32  1.230   0.799   0.329   0.032   0.033   0.037
  33  1.245   0.807   0.327   0.032   0.040   0.039
  34  1.245   0.807   0.327   0.041   0.032   0.039
  35  1.245   0.807   0.327   0.032   0.040   0.039
  36  1.246   0.807   0.327   0.041   0.031   0.039

Species: Fe2                 
Atom  Qatom  Qorb
               4s      4s      3dxy    3dyz    3dz2    3dxz    3dx2-y2 3dxy    
               3dyz    3dz2    3dxz    3dx2-y2 4Ppy    4Ppz    4Ppx    
  37  7.309   0.711   0.008   1.262   1.937   0.894   1.203   1.224  -0.053
             -0.062  -0.042  -0.050  -0.040   0.115   0.118   0.085

mulliken: Qtot =      120.000

                     ====================================
                        Begin CG opt. move =     23
                     ====================================

outcoor: Atomic coordinates (fractional):                   
    0.51705446    0.34504774    0.49820829   1       1  N
    0.49686229    0.50016554    0.34729251   1       2  N
    0.51402902    0.49974333    0.65091969   1       3  N
    0.51790516    0.65479272    0.49862830   1       4  N
    0.51402291    0.27509756    0.41040667   2       5  C
    0.48807760    0.41248597    0.27733261   2       6  C
    0.52409811    0.27468593    0.58552320   2       7  C
    0.48868663    0.58806619    0.27754917   2       8  C
    0.49790361    0.30730492    0.30671777   2       9  C
    0.52209903    0.16675429    0.44353302   2      10  C
    0.47159908    0.44636939    0.17070789   2      11  C
    0.52832860    0.16668575    0.55139392   2      12  C
    0.47198291    0.55455744    0.17084270   2      13  C
    0.51981938    0.30653673    0.69014340   2      14  C
    0.49918991    0.69311158    0.30719048   2      15  C
    0.51284170    0.41164465    0.72104398   2      16  C
    0.51539550    0.72497167    0.41097746   2      17  C
    0.51318387    0.58766617    0.72127894   2      18  C
    0.52520702    0.72490287    0.58611483   2      19  C
    0.52064791    0.69282383    0.69065331   2      20  C
    0.50733788    0.44547225    0.82874752   2      21  C
    0.52405360    0.83319024    0.44439362   2      22  C
    0.50753545    0.55357724    0.82888767   2      23  C
    0.53009819    0.83295429    0.55226261   2      24  C
    0.49222334    0.24653162    0.24488948   3      25  H
    0.52143248    0.09939597    0.38940609   3      26  H
    0.46291929    0.39206996    0.10395643   3      27  H
    0.53348005    0.09903894    0.60466723   3      28  H
    0.46369386    0.60907713    0.10422790   3      29  H
    0.52152352    0.24607462    0.75209045   3      30  H
    0.49394389    0.75406506    0.24549839   3      31  H
    0.52257648    0.75311248    0.75275839   3      32  H
    0.50570824    0.39106805    0.89578060   3      33  H
    0.52390139    0.90069115    0.39042801   3      34  H
    0.50610973    0.60780749    0.89607134   3      35  H
    0.53557620    0.90042646    0.60572487   3      36  H
    0.51210558    0.49993808    0.49853454   4      37  Fe2

superc: Internal auxiliary supercell:     1 x     3 x     3  =       9
superc: Number of atoms, orbitals, and projectors:    333   3483   4599

outcell: Unit cell vectors (Ang):
       12.731213    0.000000    0.000000
        0.000000   12.731213    0.000000
        0.000000    0.000000   12.731213

outcell: Cell vector modules (Ang)   :   12.731213   12.731213   12.731213
outcell: Cell angles (23,13,12) (deg):     90.0000     90.0000     90.0000
outcell: Cell volume (Ang**3)        :   2063.5230
<dSpData1D:S at geom step 23
  <sparsity:sparsity for geom step 23
    nrows_g=387 nrows=387 sparsity=1.0880 nnzs=162949, refcount: 7>
  <dData1D:(new from dSpData1D) n=162949, refcount: 1>
refcount: 1>
new_DM -- step:    24
Re-using DM from previous geometries...
Number of DMs in history: 1
 DM extrapolation coefficients: 
1   1.00000
New DM after history re-use:
<dSpData2D:SpM extrapolated using coords
  <sparsity:sparsity for geom step 23
    nrows_g=387 nrows=387 sparsity=1.0880 nnzs=162949, refcount: 9>
  <dData2D:(temp array for extrapolation) n=162949 m=1, refcount: 1>
refcount: 1>
No. of atoms with KB's overlaping orbs in proc 0. Max # of overlaps:      53     271

InitMesh: MESH = 150 x 150 x 150 = 3375000
InitMesh: Mesh cutoff (required, used) =   370.000   383.658 Ry
New grid distribution [1]: sub = 2

        iscf     Eharris(eV)        E_KS(eV)     FreeEng(eV)     dDmax    Ef(eV) dHmax(eV)
   scf:    1    -5164.640175    -5164.652371    -5164.746370  0.025543 -4.582771  0.133332
   scf:    2    -5163.954662    -5164.429595    -5164.513764  0.344798 -4.642879  2.495234
   scf:    3    -5164.662604    -5164.653926    -5164.747992  0.316809 -4.586918  0.049306
   scf:    4    -5164.653499    -5164.653888    -5164.748111  0.013670 -4.586027  0.026562
   scf:    5    -5164.654243    -5164.654131    -5164.748318  0.010573 -4.585578  0.019009
   scf:    6    -5164.654211    -5164.654197    -5164.748373  0.005027 -4.585655  0.006295
   scf:    7    -5164.654196    -5164.654197    -5164.748374  0.000326 -4.585594  0.005578
   scf:    8    -5164.654212    -5164.654206    -5164.748380  0.000821 -4.584906  0.001881
   scf:    9    -5164.654213    -5164.654209    -5164.748380  0.000301 -4.584824  0.002087
   scf:   10    -5164.654214    -5164.654212    -5164.748381  0.000319 -4.584800  0.002070
   scf:   11    -5164.654210    -5164.654211    -5164.748381  0.000247 -4.584779  0.001752
   scf:   12    -5164.654207    -5164.654209    -5164.748382  0.000252 -4.584704  0.001169
   scf:   13    -5164.654209    -5164.654209    -5164.748382  0.000054 -4.584669  0.000888
   scf:   14    -5164.654211    -5164.654210    -5164.748382  0.000109 -4.584671  0.000548
   scf:   15    -5164.654210    -5164.654210    -5164.748382  0.000047 -4.584692  0.000363
   scf:   16    -5164.654208    -5164.654209    -5164.748382  0.000095 -4.584713  0.000276
   scf:   17    -5164.654209    -5164.654209    -5164.748382  0.000020 -4.584713  0.000297
   scf:   18    -5164.654209    -5164.654209    -5164.748382  0.000052 -4.584714  0.000295
   scf:   19    -5164.654209    -5164.654209    -5164.748382  0.000026 -4.584723  0.000261
   scf:   20    -5164.654209    -5164.654209    -5164.748382  0.000017 -4.584737  0.000255
   scf:   21    -5164.654209    -5164.654209    -5164.748382  0.000015 -4.584744  0.000259
   scf:   22    -5164.654209    -5164.654209    -5164.748382  0.000006 -4.584744  0.000188

SCF Convergence by DM+H criterion
max |DM_out - DM_in|         :     0.0000057058
max |H_out - H_in|      (eV) :     0.0001884335
SCF cycle converged after 22 iterations

Using DM_out to compute the final energy and forces
No. of atoms with KB's overlaping orbs in proc 0. Max # of overlaps:      53     271

siesta: E_KS(eV) =            -5164.6542

siesta: Atomic forces (eV/Ang):
     1   -0.033146    0.190965   -0.030959
     2    0.051083   -0.001884   -0.062595
     3    0.048259   -0.000083   -0.005071
     4   -0.034658   -0.192453   -0.037030
     5   -0.070868   -0.066982   -0.075550
     6   -0.026775   -0.090823   -0.045679
     7   -0.052840   -0.002156   -0.015203
     8   -0.026664    0.090178   -0.046923
     9    0.044496   -0.080771    0.044395
    10   -0.003670    0.120737   -0.152922
    11    0.035067   -0.082018   -0.081549
    12    0.003269    0.032331    0.058784
    13    0.036037    0.080528   -0.081195
    14    0.020710    0.111027    0.083378
    15    0.044867    0.081758    0.046904
    16   -0.025520    0.000657   -0.031013
    17   -0.070021    0.068861   -0.073028
    18   -0.025160    0.004527   -0.034747
    19   -0.052520    0.001133   -0.009362
    20    0.019764   -0.114900    0.083017
    21    0.049213   -0.144859    0.057843
    22   -0.004133   -0.120184   -0.158375
    23    0.049812    0.145386    0.061982
    24    0.003608   -0.030727    0.058296
    25    0.017143    0.073528    0.071762
    26    0.006750   -0.027059    0.008750
    27   -0.033564    0.049506   -0.026629
    28    0.021704   -0.066979    0.049545
    29   -0.034199   -0.047404   -0.028517
    30    0.003242   -0.034358    0.006202
    31    0.016281   -0.074426    0.072131
    32    0.003616    0.035252    0.006800
    33   -0.011134    0.019606    0.086266
    34    0.007864    0.024737    0.010876
    35   -0.011226   -0.020764    0.084493
    36    0.023049    0.067076    0.050247
    37    0.036307    0.000909    0.103351
----------------------------------------
   Tot    0.026044   -0.000126    0.048676
----------------------------------------
   Max    0.192453
   Res    0.064163    sqrt( Sum f_i^2 / 3N )
----------------------------------------
   Max    0.192453    constrained

Stress tensor Voigt[x,y,z,yz,xz,xy] (kbar):        0.02        0.30       -2.30        0.01       -0.08        0.00
(Free)E + p*V (eV/cell)    -5163.8995
Target enthalpy (eV/cell)    -5164.7484

mulliken: Atomic and Orbital Populations:

Species: N                   
Atom  Qatom  Qorb
               2s      2s      2py     2pz     2px     2py     2pz     2px     
               3Pdxy   3Pdyz   3Pdz2   3Pdxz   3Pdx2-y2
   1  5.088   0.842   0.512   0.778   0.578   1.279   0.429   0.489   0.069
              0.019   0.042   0.021   0.023   0.007
   2  5.080   0.824   0.523   0.580   0.747   1.282   0.488   0.451   0.070
              0.023   0.044   0.014   0.018   0.014
   3  5.083   0.830   0.520   0.582   0.752   1.287   0.486   0.448   0.065
              0.023   0.043   0.014   0.019   0.014
   4  5.088   0.842   0.512   0.778   0.578   1.279   0.429   0.489   0.069
              0.019   0.042   0.021   0.023   0.007

Species: C                   
Atom  Qatom  Qorb
               2s      2s      2py     2pz     2px     2py     2pz     2px     
               3Pdxy   3Pdyz   3Pdz2   3Pdxz   3Pdx2-y2
   5  3.987   0.326   0.602   0.579   0.650   0.591   0.367   0.296   0.327
              0.047   0.063   0.057   0.054   0.027
   6  3.985   0.318   0.605   0.652   0.582   0.589   0.294   0.367   0.329
              0.055   0.064   0.057   0.045   0.028
   7  3.987   0.322   0.603   0.580   0.653   0.589   0.367   0.295   0.329
              0.047   0.064   0.056   0.055   0.026
   8  3.985   0.319   0.605   0.652   0.582   0.589   0.294   0.367   0.329
              0.055   0.064   0.057   0.045   0.028
   9  3.804   0.126   0.715   0.358   0.349   0.663   0.588   0.593   0.280
              0.027   0.046   0.023   0.025   0.012
  10  3.796   0.173   0.678   0.302   0.372   0.686   0.618   0.575   0.256
              0.019   0.046   0.029   0.031   0.010
  11  3.798   0.177   0.676   0.372   0.314   0.677   0.575   0.609   0.262
              0.032   0.046   0.024   0.019   0.016
  12  3.796   0.171   0.679   0.298   0.378   0.683   0.622   0.571   0.258
              0.020   0.046   0.029   0.031   0.010
  13  3.798   0.176   0.676   0.370   0.315   0.678   0.576   0.608   0.262
              0.032   0.046   0.024   0.019   0.016
  14  3.802   0.121   0.717   0.357   0.344   0.664   0.589   0.600   0.277
              0.027   0.046   0.022   0.027   0.011
  15  3.804   0.126   0.715   0.357   0.350   0.663   0.588   0.592   0.280
              0.027   0.046   0.023   0.026   0.012
  16  3.984   0.320   0.605   0.650   0.580   0.591   0.295   0.369   0.327
              0.055   0.064   0.056   0.047   0.026
  17  3.987   0.326   0.602   0.579   0.650   0.591   0.367   0.296   0.327
              0.047   0.063   0.057   0.054   0.027
  18  3.984   0.320   0.605   0.650   0.580   0.591   0.295   0.369   0.327
              0.054   0.064   0.056   0.047   0.026
  19  3.987   0.322   0.603   0.580   0.653   0.589   0.367   0.295   0.329
              0.047   0.064   0.056   0.055   0.026
  20  3.802   0.121   0.717   0.358   0.342   0.664   0.588   0.601   0.277
              0.027   0.046   0.022   0.027   0.011
  21  3.797   0.174   0.677   0.369   0.307   0.684   0.577   0.616   0.257
              0.031   0.047   0.024   0.020   0.015
  22  3.796   0.174   0.678   0.301   0.373   0.686   0.619   0.574   0.256
              0.019   0.046   0.029   0.031   0.010
  23  3.797   0.174   0.677   0.371   0.305   0.684   0.576   0.617   0.257
              0.031   0.047   0.024   0.020   0.015
  24  3.796   0.171   0.678   0.300   0.377   0.683   0.621   0.572   0.259
              0.020   0.046   0.029   0.031   0.010

Species: H                   
Atom  Qatom  Qorb
               1s      1s      2Ppy    2Ppz    2Ppx    
  25  1.229   0.798   0.328   0.032   0.034   0.037
  26  1.246   0.807   0.327   0.041   0.032   0.039
  27  1.244   0.805   0.328   0.032   0.040   0.039
  28  1.246   0.807   0.327   0.041   0.031   0.039
  29  1.244   0.805   0.328   0.032   0.040   0.039
  30  1.230   0.799   0.329   0.032   0.033   0.037
  31  1.229   0.798   0.328   0.032   0.033   0.037
  32  1.230   0.799   0.329   0.032   0.033   0.037
  33  1.246   0.808   0.327   0.032   0.040   0.039
  34  1.245   0.807   0.327   0.041   0.032   0.039
  35  1.245   0.807   0.327   0.032   0.040   0.039
  36  1.246   0.807   0.327   0.041   0.031   0.039

Species: Fe2                 
Atom  Qatom  Qorb
               4s      4s      3dxy    3dyz    3dz2    3dxz    3dx2-y2 3dxy    
               3dyz    3dz2    3dxz    3dx2-y2 4Ppy    4Ppz    4Ppx    
  37  7.311   0.712   0.009   1.262   1.936   0.895   1.201   1.226  -0.053
             -0.062  -0.042  -0.049  -0.040   0.114   0.118   0.085

mulliken: Qtot =      120.000

cgvc: Finished line minimization   27.  Mean atomic displacement =    0.0132

                     ====================================
                        Begin CG opt. move =     24
                     ====================================

outcoor: Atomic coordinates (fractional):                   
    0.51631130    0.34528685    0.49831281   1       1  N
    0.49686905    0.50016260    0.34678771   1       2  N
    0.51396791    0.49974366    0.65135378   1       3  N
    0.51715914    0.65455227    0.49872475   1       4  N
    0.51372055    0.27511486    0.41022518   2       5  C
    0.48833631    0.41243885    0.27680494   2       6  C
    0.52381600    0.27474714    0.58554622   2       7  C
    0.48894580    0.58811315    0.27702101   2       8  C
    0.49830990    0.30728539    0.30660679   2       9  C
    0.52216299    0.16710078    0.44324274   2      10  C
    0.47175325    0.44614882    0.16998514   2      11  C
    0.52844548    0.16694253    0.55155263   2      12  C
    0.47214005    0.55477678    0.17012216   2      13  C
    0.52020551    0.30681299    0.69042181   2      14  C
    0.49959450    0.69313260    0.30708422   2      15  C
    0.51310337    0.41152505    0.72157555   2      16  C
    0.51509201    0.72495626    0.41080571   2      17  C
    0.51344621    0.58779633    0.72180180   2      18  C
    0.52492475    0.72484319    0.58614959   2      19  C
    0.52103309    0.69254136    0.69093019   2      20  C
    0.50758125    0.44523053    0.82951946   2      21  C
    0.52411848    0.83284227    0.44409336   2      22  C
    0.50778164    0.55382020    0.82966684   2      23  C
    0.53021770    0.83270106    0.55242147   2      24  C
    0.49219929    0.24649140    0.24491009   3      25  H
    0.52143272    0.09932513    0.38944718   3      26  H
    0.46251438    0.39207195    0.10311093   3      27  H
    0.53358492    0.09891678    0.60475723   3      28  H
    0.46328766    0.60907926    0.10337757   3      29  H
    0.52139220    0.24591437    0.75209870   3      30  H
    0.49391786    0.75410221    0.24552112   3      31  H
    0.52244663    0.75327712    0.75277066   3      32  H
    0.50560352    0.39104273    0.89661746   3      33  H
    0.52391175    0.90075845    0.39047285   3      34  H
    0.50600420    0.60783135    0.89690176   3      35  H
    0.53569108    0.90054790    0.60581538   3      36  H
    0.51234185    0.49993651    0.49865387   4      37  Fe2

superc: Internal auxiliary supercell:     1 x     3 x     3  =       9
superc: Number of atoms, orbitals, and projectors:    333   3483   4599

outcell: Unit cell vectors (Ang):
       12.731213    0.000000    0.000000
        0.000000   12.731213    0.000000
        0.000000    0.000000   12.731213

outcell: Cell vector modules (Ang)   :   12.731213   12.731213   12.731213
outcell: Cell angles (23,13,12) (deg):     90.0000     90.0000     90.0000
outcell: Cell volume (Ang**3)        :   2063.5230
<dSpData1D:S at geom step 24
  <sparsity:sparsity for geom step 24
    nrows_g=387 nrows=387 sparsity=1.0876 nnzs=162895, refcount: 7>
  <dData1D:(new from dSpData1D) n=162895, refcount: 1>
refcount: 1>
new_DM -- step:    25
Re-using DM from previous geometries...
Number of DMs in history: 1
 DM extrapolation coefficients: 
1   1.00000
New DM after history re-use:
<dSpData2D:SpM extrapolated using coords
  <sparsity:sparsity for geom step 24
    nrows_g=387 nrows=387 sparsity=1.0876 nnzs=162895, refcount: 9>
  <dData2D:(temp array for extrapolation) n=162895 m=1, refcount: 1>
refcount: 1>
No. of atoms with KB's overlaping orbs in proc 0. Max # of overlaps:      53     271

InitMesh: MESH = 150 x 150 x 150 = 3375000
InitMesh: Mesh cutoff (required, used) =   370.000   383.658 Ry
New grid distribution [1]: sub = 2

        iscf     Eharris(eV)        E_KS(eV)     FreeEng(eV)     dDmax    Ef(eV) dHmax(eV)
   scf:    1    -5164.787677    -5164.631537    -5164.724965  0.141360 -4.568056  0.746747
   scf:    2    -5155.716984    -5161.813400    -5161.820199  0.846296 -4.921505 10.491905
   scf:    3    -5164.927026    -5164.654645    -5164.748039  0.705916 -4.593690  0.452370
   scf:    4    -5164.521262    -5164.602958    -5164.693489  0.094211 -4.617218  1.505108
   scf:    5    -5164.679020    -5164.654646    -5164.747944  0.101849 -4.593011  0.457230
   scf:    6    -5164.653251    -5164.653959    -5164.747200  0.002987 -4.593698  0.486949
   scf:    7    -5164.652689    -5164.659589    -5164.754000  0.073345 -4.581421  0.192223
   scf:    8    -5164.661167    -5164.660546    -5164.754843  0.012126 -4.584179  0.079976
   scf:    9    -5164.660922    -5164.660807    -5164.755022  0.008281 -4.585881  0.008569
   scf:   10    -5164.660826    -5164.660818    -5164.755025  0.001062 -4.586014  0.007745
   scf:   11    -5164.660852    -5164.660838    -5164.755041  0.001079 -4.586483  0.003988
   scf:   12    -5164.660845    -5164.660842    -5164.755041  0.000193 -4.586577  0.003870
   scf:   13    -5164.660845    -5164.660843    -5164.755042  0.000206 -4.586723  0.003718
   scf:   14    -5164.660841    -5164.660842    -5164.755043  0.000281 -4.586838  0.003309
   scf:   15    -5164.660841    -5164.660842    -5164.755044  0.000943 -4.587030  0.002042
   scf:   16    -5164.660843    -5164.660843    -5164.755044  0.000026 -4.587059  0.001760
   scf:   17    -5164.660848    -5164.660845    -5164.755045  0.000434 -4.587172  0.000482
   scf:   18    -5164.660845    -5164.660845    -5164.755045  0.000037 -4.587174  0.000423
   scf:   19    -5164.660844    -5164.660845    -5164.755045  0.000045 -4.587182  0.000389
