Siesta Version  : 5.0.0-alpha-10-g89f2f52d8-dirty
Architecture    : unknown
Compiler version: GNU Fortran (Ubuntu 9.3.0-17ubuntu1~20.04) 9.3.0
Compiler flags  : gfortran -O2 -fPIC -ftree-vectorize
PP flags        : -DFC_HAVE_ABORT -DSIESTA__DIAG_2STAGE -DSIESTA__MRRR
Libraries       : libsiestaLAPACK.a libsiestaBLAS.a
Directory       : /home/runner/work/ip/ip/ip
SERIAL version

* Running in serial mode
>> Start of run:  27-JUN-2021  12:13:15

                           ***********************       
                           *  WELCOME TO SIESTA  *       
                           ***********************       

reinit: Reading from standard input
reinit: Dumped input in INPUT_TMP.65802
************************** Dump of input data file ****************************
SystemName          iron porphyrin
SystemLabel         ip
# Species and atoms
 NumberOfAtoms          37
 NumberOfSpecies           4
 %block ChemicalSpeciesLabel
    1       7      N
    2       6      C
    3       1      H
    4      26      Fe2
 %endblock ChemicalSpeciesLabel
 # Basis
 PAO.BasisType         split
 PAO.BasisSize         DZP
 PAO.EnergyShift       50 meV
 LatticeConstant  1.000000  Ang
 AtomicCoordinatesFormat     Fractional
 %block LatticeVectors
   12.7312126160    0.0000000000    0.0000000000
    0.0000000000   12.7312126160    0.0000000000
    0.0000000000    0.0000000000   12.7312126160
 %endblock LatticeVectors
 %block AtomicCoordinatesAndAtomicSpecies
    0.5183603760    0.3417397440    0.4985649590    1
    0.4923353790    0.5001747610    0.3501061800    1
    0.5097091790    0.4997498390    0.6464495660    1
    0.5192401410    0.6580858830    0.4989733990    1
    0.5145021680    0.2750532630    0.4113305210    2
    0.4856400190    0.4133637250    0.2822375600    2
    0.5238830450    0.2749275570    0.5832529070    2
    0.4862518910    0.5871979000    0.2824519870    2
    0.4972909090    0.3081341390    0.3103016610    2
    0.5222147110    0.1662568750    0.4435646830    2
    0.4720702170    0.4462019210    0.1763552730    2
    0.5279674530    0.1661633850    0.5506197210    2
    0.4724582430    0.5547202830    0.1764895620    2
    0.5194026830    0.3082684580    0.6873050330    2
    0.4985798600    0.6922837500    0.3107760850    2
    0.5106611850    0.4117496010    0.7156228420    2
    0.5158821940    0.7250119450    0.4119015630    2
    0.5110036730    0.5875678660    0.7158522010    2
    0.5249913330    0.7246545550    0.5838388200    2
    0.5202195640    0.6910780670    0.6878022550    2
    0.5069584850    0.4460039730    0.8232787250    2
    0.5241563920    0.8336834910    0.4444208740    2
    0.5071579810    0.5530440810    0.8234193330    2
    0.5297175050    0.8334753510    0.5514868500    2
    0.4921680690    0.2497689430    0.2485416230    3
    0.5214449170    0.1000754540    0.3905665870    3
    0.4651415940    0.3939154740    0.1099680360    3
    0.5328326820    0.0999999940    0.6033821700    3
    0.4659050410    0.6072203520    0.1102335450    3
    0.5216633080    0.2496581970    0.7489330770    3
    0.4938788120    0.7508257030    0.2491511700    3
    0.5226992960    0.7495257260    0.7495763900    3
    0.5058494210    0.3933852610    0.8897515540    3
    0.5238366720    0.8999999760    0.3915885090    3
    0.5062460900    0.6054899690    0.8900319340    3
    0.5348584060    0.8994753360    0.6044284110    3
    0.5248350500    0.4999022190    0.4999128280    4
 %endblock AtomicCoordinatesAndAtomicSpecies
 %block kgrid_Monkhorst_Pack
   1   0   0    0.000000
   0   2   0    0.000000
   0   0   2    0.000000
 %endblock kgrid_Monkhorst_Pack
 SpinPolarized         .false.        # Logical parameters are: yes or no
 xc.functional         GGA            # Exchange-correlation functional
 xc.authors            PBE            # Exchange-correlation version
 SolutionMethod        diagon         # OrderN or Diagon
 MaxSCFIterations      300            # Maximum number of SCF iter
 DM.MixingWeight       0.02          # New DM amount for next SCF cycle
 DM.Tolerance          1.d-5          # Tolerance in maximum difference
 MeshCutoff            370.0 Ry       # Mesh cutoff. real space mesh
 DM.NumberPulay         4
 ElectronicTemperature  25 meV        # Temp. for Fermi smearing
 # MD options
 MD.TypeOfRun           cg            # Type of dynamics:
 MD.NumCGsteps          50           # Number of CG steps for
 MD.MaxCGDispl          0.1 Ang       # Maximum atomic displacement
 MD.MaxForceTol         0.04 eV/Ang   # Tolerance in the maximum
 # Output options
 WriteCoorInitial      .true.
 WriteEigenvalues      .true.
 # Options for saving/reading
 DM.UseSaveDM          .true.         # to use continuation files
 UseSaveData           .true.
	# -- SAVING WAVE/BAND/EIGEN/KPOINTS/ANIMATION INFORMATION --
WriteKbands            	T
WriteBands           	T
WriteCoorXmol 		T
WriteCoorStep       	T
WriteKpoints        	T
WriteCoorCerius		T
WriteHS             	T
WriteForces           	T
WriteMullikenPop	1
SaveHS			T
XML.Write              	T
BandLinesScale      ReciprocalLatticeVectors
%block BandLines
1  0.0000000000 0.0000000000 0.0000000000  \Gamma
10 0.0000000000 0.5000000000 0.0000000000  X
10 0.0000000000 0.0000000000 0.5000000000  Y
10 0.0000000000 0.0000000000 0.0000000000  \Gamma
10 0.5000000000 0.0000000000 0.0000000000  Z
10 0.5000000000 0.5000000000 0.5000000000  R
10 0.0000000000 0.0000000000 0.0000000000  \Gamma
10 0.5000000000 0.0000000000 0.5000000000  T
10 0.5000000000 0.5000000000 0.0000000000  U
10 0.0000000000 0.0000000000 0.0000000000  \Gamma
10 0.0000000000 0.5000000000 0.5000000000  V
10 0.0000000000 0.0000000000 0.0000000000  \Gamma
%endblock BandLines
************************** End of input data file *****************************

reinit: -----------------------------------------------------------------------
reinit: System Name: iron porphyrin
reinit: -----------------------------------------------------------------------
reinit: System Label: ip
reinit: -----------------------------------------------------------------------

initatom: Reading input for the pseudopotentials and atomic orbitals ----------
Species number:   1 Atomic number:    7 Label: N
Species number:   2 Atomic number:    6 Label: C
Species number:   3 Atomic number:    1 Label: H
Species number:   4 Atomic number:   26 Label: Fe2

Ground state valence configuration:   2s02  2p03
Reading pseudopotential information in formatted form from N.psf

Pseudopotential generated from a relativistic atomic calculation

Valence configuration for pseudopotential generation:
2s( 2.00) rc: 1.29
2p( 3.00) rc: 1.42
3d( 0.00) rc: 1.74
4f( 0.00) rc: 2.98
Ground state valence configuration:   2s02  2p02
Reading pseudopotential information in formatted form from C.psf

Pseudopotential generated from a relativistic atomic calculation

Valence configuration for pseudopotential generation:
2s( 2.00) rc: 1.84
2p( 2.00) rc: 1.62
3d( 0.00) rc: 1.64
4f( 0.00) rc: 1.64
Ground state valence configuration:   1s01
Reading pseudopotential information in formatted form from H.psf

Pseudopotential generated from a relativistic atomic calculation

Valence configuration for pseudopotential generation:
1s( 1.00) rc: 1.31
2p( 0.00) rc: 1.13
3d( 0.00) rc: 1.09
4f( 0.00) rc: 1.14
Ground state valence configuration:   4s02  3d06
Reading pseudopotential information in formatted form from Fe2.psf

Pseudopotential generated from a relativistic atomic calculation

Valence configuration for pseudopotential generation:
4s( 0.00) rc: 2.00
4p( 0.00) rc: 2.00
3d( 6.00) rc: 2.00
4f( 0.00) rc: 2.00
For N, standard SIESTA heuristics set lmxkb to 3
 (one more than the basis l, including polarization orbitals).
Use PS.lmax or PS.KBprojectors blocks to override.
For C, standard SIESTA heuristics set lmxkb to 3
 (one more than the basis l, including polarization orbitals).
Use PS.lmax or PS.KBprojectors blocks to override.
For H, standard SIESTA heuristics set lmxkb to 2
 (one more than the basis l, including polarization orbitals).
Use PS.lmax or PS.KBprojectors blocks to override.
For Fe2, standard SIESTA heuristics set lmxkb to 3
 (one more than the basis l, including polarization orbitals).
Use PS.lmax or PS.KBprojectors blocks to override.
Fe2: nkbl increased for l=1 due to the presence of a polarization orbital

<basis_specs>
===============================================================================
N                    Z=   7    Mass=  14.010        Charge= 0.17977+309
Lmxo=1 Lmxkb= 3    BasisType=split      Semic=F
L=0  Nsemic=0  Cnfigmx=2
          i=1  nzeta=2  polorb=0  (2s)
            splnorm:   0.15000    
               vcte:    0.0000    
               rinn:    0.0000    
               qcoe:    0.0000    
               qyuk:    0.0000    
               qwid:   0.10000E-01
                rcs:    0.0000      0.0000    
            lambdas:    1.0000      1.0000    
L=1  Nsemic=0  Cnfigmx=2
          i=1  nzeta=2  polorb=1  (2p)
            splnorm:   0.15000    
               vcte:    0.0000    
               rinn:    0.0000    
               qcoe:    0.0000    
               qyuk:    0.0000    
               qwid:   0.10000E-01
                rcs:    0.0000      0.0000    
            lambdas:    1.0000      1.0000    
-------------------------------------------------------------------------------
L=0  Nkbl=1  erefs: 0.17977+309
L=1  Nkbl=1  erefs: 0.17977+309
L=2  Nkbl=1  erefs: 0.17977+309
L=3  Nkbl=1  erefs: 0.17977+309
===============================================================================
</basis_specs>

atom: Called for N                     (Z =   7)

read_vps: Pseudopotential generation method:
read_vps: ATM4.1.0  Troullier-Martins                       
Valence charge for ps generation:    5.00000

read_vps: Pseudopotential includes a core correction:
read_vps: Pseudo-core for xc-correction

xc_check: Exchange-correlation functional:
xc_check: GGA Perdew, Burke & Ernzerhof 1996
V l=0 = -2*Zval/r beyond r=  1.3893
V l=1 = -2*Zval/r beyond r=  1.4068
V l=2 = -2*Zval/r beyond r=  1.7184
V l=3 = -2*Zval/r beyond r=  2.9051
All V_l potentials equal beyond r=  2.9051
This should be close to max(r_c) in ps generation
All pots = -2*Zval/r beyond r=  2.9051

VLOCAL1: 99.0% of the norm of Vloc inside      5.143 Ry
VLOCAL1: 99.9% of the norm of Vloc inside     11.722 Ry
atom: Maximum radius for 4*pi*r*r*local-pseudopot. charge    3.46076
atom: Maximum radius for r*vlocal+2*Zval:    3.05407

KBgen: Kleinman-Bylander projectors: 
GHOST: No ghost state for L =  0
   l= 0   rc=  3.016124   el= -1.364978   Ekb= -2.808808   kbcos= -0.742527
GHOST: No ghost state for L =  1
   l= 1   rc=  2.978652   el= -0.521172   Ekb= -8.658168   kbcos= -0.584939
GHOST: No ghost state for L =  2
   l= 2   rc=  3.333369   el=  0.001991   Ekb= -1.641438   kbcos= -0.029991
GHOST: No ghost state for L =  3
   l= 3   rc=  3.460758   el=  0.003093   Ekb= -0.279848   kbcos= -0.014018

KBgen: Total number of  Kleinman-Bylander projectors:   16
atom: -------------------------------------------------------------------------

atom: SANKEY-TYPE ORBITALS:
atom: Selected multiple-zeta basis: split     

SPLIT: Orbitals with angular momentum L= 0

SPLIT: Basis orbitals for state 2s

SPLIT: PAO cut-off radius determined from an
SPLIT: energy shift=  0.003675 Ry

   izeta = 1
                 lambda =    1.000000
                     rc =    4.388595
                 energy =   -1.361280
                kinetic =    1.182830
    potential(screened) =   -2.544110
       potential(ionic) =   -8.052211

   izeta = 2
                 rmatch =    2.941647
              splitnorm =    0.150000
                 energy =   -1.182724
                kinetic =    1.808505
    potential(screened) =   -2.991229
       potential(ionic) =   -8.894182

SPLIT: Orbitals with angular momentum L= 1

SPLIT: Basis orbitals for state 2p

SPLIT: PAO cut-off radius determined from an
SPLIT: energy shift=  0.003675 Ry

   izeta = 1
                 lambda =    1.000000
                     rc =    5.496027
                 energy =   -0.517594
                kinetic =    3.415465
    potential(screened) =   -3.933060
       potential(ionic) =   -9.235705

   izeta = 2
                 rmatch =    3.092486
              splitnorm =    0.150000
                 energy =   -0.339289
                kinetic =    5.055748
    potential(screened) =   -5.395036
       potential(ionic) =  -11.309880

POLgen: Perturbative polarization orbital with L=  2

POLgen: Polarization orbital for state 2p

   izeta = 1
                     rc =    5.496027
                 energy =    1.497544
                kinetic =    3.057213
    potential(screened) =   -1.559669
       potential(ionic) =   -5.761067
atom: Total number of Sankey-type orbitals: 13

atm_pop: Valence configuration (for local Pseudopot. screening):
 2s( 2.00)                                                            
 2p( 3.00)                                                            
Vna: chval, zval:    5.00000   5.00000

Vna:  Cut-off radius for the neutral-atom potential:   5.496027
comcore: Pseudo-core radius Rcore=  1.554824

atom: _________________________________________________________________________

<basis_specs>
===============================================================================
C                    Z=   6    Mass=  12.010        Charge= 0.17977+309
Lmxo=1 Lmxkb= 3    BasisType=split      Semic=F
L=0  Nsemic=0  Cnfigmx=2
          i=1  nzeta=2  polorb=0  (2s)
            splnorm:   0.15000    
               vcte:    0.0000    
               rinn:    0.0000    
               qcoe:    0.0000    
               qyuk:    0.0000    
               qwid:   0.10000E-01
                rcs:    0.0000      0.0000    
            lambdas:    1.0000      1.0000    
L=1  Nsemic=0  Cnfigmx=2
          i=1  nzeta=2  polorb=1  (2p)
            splnorm:   0.15000    
               vcte:    0.0000    
               rinn:    0.0000    
               qcoe:    0.0000    
               qyuk:    0.0000    
               qwid:   0.10000E-01
                rcs:    0.0000      0.0000    
            lambdas:    1.0000      1.0000    
-------------------------------------------------------------------------------
L=0  Nkbl=1  erefs: 0.17977+309
L=1  Nkbl=1  erefs: 0.17977+309
L=2  Nkbl=1  erefs: 0.17977+309
L=3  Nkbl=1  erefs: 0.17977+309
===============================================================================
</basis_specs>

atom: Called for C                     (Z =   6)

read_vps: Pseudopotential generation method:
read_vps: ATM3.3    Troullier-Martins                       
Valence charge for ps generation:    4.00000

xc_check: Exchange-correlation functional:
xc_check: GGA Perdew, Burke & Ernzerhof 1996
V l=0 = -2*Zval/r beyond r=  1.8140
V l=1 = -2*Zval/r beyond r=  1.7692
V l=2 = -2*Zval/r beyond r=  1.7692
V l=3 = -2*Zval/r beyond r=  1.7692
All V_l potentials equal beyond r=  1.8140
This should be close to max(r_c) in ps generation
All pots = -2*Zval/r beyond r=  1.8140

VLOCAL1: 99.0% of the norm of Vloc inside     13.192 Ry
VLOCAL1: 99.9% of the norm of Vloc inside     30.065 Ry
atom: Maximum radius for 4*pi*r*r*local-pseudopot. charge    2.16095
atom: Maximum radius for r*vlocal+2*Zval:    1.88329

KBgen: Kleinman-Bylander projectors: 
GHOST: No ghost state for L =  0
   l= 0   rc=  2.004780   el= -1.010207   Ekb=  2.995585   kbcos=  0.335322
GHOST: No ghost state for L =  1
   l= 1   rc=  1.979871   el= -0.388556   Ekb= -4.412411   kbcos= -0.405487
GHOST: No ghost state for L =  2
   l= 2   rc=  2.188140   el=  0.001971   Ekb= -1.183708   kbcos= -0.012464
GHOST: No ghost state for L =  3
   l= 3   rc=  2.479542   el=  0.003065   Ekb= -0.554381   kbcos= -0.001878

KBgen: Total number of  Kleinman-Bylander projectors:   16
atom: -------------------------------------------------------------------------

atom: SANKEY-TYPE ORBITALS:
atom: Selected multiple-zeta basis: split     

SPLIT: Orbitals with angular momentum L= 0

SPLIT: Basis orbitals for state 2s

SPLIT: PAO cut-off radius determined from an
SPLIT: energy shift=  0.003675 Ry

   izeta = 1
                 lambda =    1.000000
                     rc =    4.993604
                 energy =   -1.006386
                kinetic =    0.821009
    potential(screened) =   -1.827396
       potential(ionic) =   -5.411899

   izeta = 2
                 rmatch =    3.475094
              splitnorm =    0.150000
                 energy =   -0.870447
                kinetic =    1.260244
    potential(screened) =   -2.130691
       potential(ionic) =   -5.977467

SPLIT: Orbitals with angular momentum L= 1

SPLIT: Basis orbitals for state 2p

SPLIT: PAO cut-off radius determined from an
SPLIT: energy shift=  0.003675 Ry

   izeta = 1
                 lambda =    1.000000
                     rc =    6.253707
                 energy =   -0.384900
                kinetic =    2.331510
    potential(screened) =   -2.716409
       potential(ionic) =   -6.135594

   izeta = 2
                 rmatch =    3.745781
              splitnorm =    0.150000
                 energy =   -0.256413
                kinetic =    3.469048
    potential(screened) =   -3.725462
       potential(ionic) =   -7.535472

POLgen: Perturbative polarization orbital with L=  2

POLgen: Polarization orbital for state 2p

   izeta = 1
                     rc =    6.253707
                 energy =    1.024133
                kinetic =    2.152420
    potential(screened) =   -1.128287
       potential(ionic) =   -3.877835
atom: Total number of Sankey-type orbitals: 13

atm_pop: Valence configuration (for local Pseudopot. screening):
 2s( 2.00)                                                            
 2p( 2.00)                                                            
Vna: chval, zval:    4.00000   4.00000

Vna:  Cut-off radius for the neutral-atom potential:   6.253707

atom: _________________________________________________________________________

<basis_specs>
===============================================================================
H                    Z=   1    Mass=  1.0100        Charge= 0.17977+309
Lmxo=0 Lmxkb= 2    BasisType=split      Semic=F
L=0  Nsemic=0  Cnfigmx=1
          i=1  nzeta=2  polorb=1  (1s)
            splnorm:   0.15000    
               vcte:    0.0000    
               rinn:    0.0000    
               qcoe:    0.0000    
               qyuk:    0.0000    
               qwid:   0.10000E-01
                rcs:    0.0000      0.0000    
            lambdas:    1.0000      1.0000    
-------------------------------------------------------------------------------
L=0  Nkbl=1  erefs: 0.17977+309
L=1  Nkbl=1  erefs: 0.17977+309
L=2  Nkbl=1  erefs: 0.17977+309
===============================================================================
</basis_specs>

atom: Called for H                     (Z =   1)

read_vps: Pseudopotential generation method:
read_vps: ATM4.1.0  Troullier-Martins                       
Valence charge for ps generation:    1.00000

xc_check: Exchange-correlation functional:
xc_check: GGA Perdew, Burke & Ernzerhof 1996
V l=0 = -2*Zval/r beyond r=  1.2977
V l=1 = -2*Zval/r beyond r=  1.2656
V l=2 = -2*Zval/r beyond r=  1.2656
All V_l potentials equal beyond r=  1.2977
This should be close to max(r_c) in ps generation
All pots = -2*Zval/r beyond r=  1.2977

VLOCAL1: 99.0% of the norm of Vloc inside     25.776 Ry
VLOCAL1: 99.9% of the norm of Vloc inside     58.745 Ry
atom: Maximum radius for 4*pi*r*r*local-pseudopot. charge    1.52711
atom: Maximum radius for r*vlocal+2*Zval:    1.28155

KBgen: Kleinman-Bylander projectors: 
GHOST: No ghost state for L =  0
   l= 0   rc=  1.452513   el= -0.477183   Ekb= -1.957529   kbcos= -0.361582
GHOST: No ghost state for L =  1
   l= 1   rc=  1.730774   el=  0.001076   Ekb= -0.628875   kbcos= -0.020986
GHOST: No ghost state for L =  2
   l= 2   rc=  2.011274   el=  0.002010   Ekb= -0.258614   kbcos= -0.002433

KBgen: Total number of  Kleinman-Bylander projectors:    9
atom: -------------------------------------------------------------------------

atom: SANKEY-TYPE ORBITALS:
atom: Selected multiple-zeta basis: split     

SPLIT: Orbitals with angular momentum L= 0

SPLIT: Basis orbitals for state 1s

SPLIT: PAO cut-off radius determined from an
SPLIT: energy shift=  0.003675 Ry

   izeta = 1
                 lambda =    1.000000
                     rc =    6.047169
                 energy =   -0.473707
                kinetic =    0.890783
    potential(screened) =   -1.364491
       potential(ionic) =   -1.884975

   izeta = 2
                 rmatch =    4.052721
              splitnorm =    0.150000
                 energy =   -0.382777
                kinetic =    1.427749
    potential(screened) =   -1.810526
       potential(ionic) =   -2.357421

POLgen: Perturbative polarization orbital with L=  1

POLgen: Polarization orbital for state 1s

   izeta = 1
                     rc =    6.047169
                 energy =    0.568234
                kinetic =    1.185253
    potential(screened) =   -0.617020
       potential(ionic) =   -1.087179
atom: Total number of Sankey-type orbitals:  5

atm_pop: Valence configuration (for local Pseudopot. screening):
 1s( 1.00)                                                            
Vna: chval, zval:    1.00000   1.00000

Vna:  Cut-off radius for the neutral-atom potential:   6.047169

atom: _________________________________________________________________________

<basis_specs>
===============================================================================
Fe2                  Z=  26    Mass=  55.850        Charge= 0.17977+309
Lmxo=2 Lmxkb= 3    BasisType=split      Semic=F
L=0  Nsemic=0  Cnfigmx=4
          i=1  nzeta=2  polorb=1  (4s)
            splnorm:   0.15000    
               vcte:    0.0000    
               rinn:    0.0000    
               qcoe:    0.0000    
               qyuk:    0.0000    
               qwid:   0.10000E-01
                rcs:    0.0000      0.0000    
            lambdas:    1.0000      1.0000    
L=1  Nsemic=0  Cnfigmx=4
L=2  Nsemic=0  Cnfigmx=3
          i=1  nzeta=2  polorb=0  (3d)
            splnorm:   0.15000    
               vcte:    0.0000    
               rinn:    0.0000    
               qcoe:    0.0000    
               qyuk:    0.0000    
               qwid:   0.10000E-01
                rcs:    0.0000      0.0000    
            lambdas:    1.0000      1.0000    
-------------------------------------------------------------------------------
L=0  Nkbl=1  erefs: 0.17977+309
L=1  Nkbl=2  erefs: 0.17977+309 0.17977+309
L=2  Nkbl=1  erefs: 0.17977+309
L=3  Nkbl=1  erefs: 0.17977+309
===============================================================================
</basis_specs>

atom: Called for Fe2                   (Z =  26)

read_vps: Pseudopotential generation method:
read_vps: ATM4.2.7  Troullier-Martins                       
Valence charge for ps generation:    6.00000

read_vps: Pseudopotential includes a core correction:
read_vps: Pseudo-core for xc-correction

atom: Pseudopotential generated from an ionic configuration
atom: with net charge 2.00

xc_check: Exchange-correlation functional:
xc_check: GGA Perdew, Burke & Ernzerhof 1996
V l=0 = -2*Zval/r beyond r=  2.7302
V l=1 = -2*Zval/r beyond r=  2.7302
V l=2 = -2*Zval/r beyond r=  2.7302
V l=3 = -2*Zval/r beyond r=  2.7302
All V_l potentials equal beyond r=  1.9726
This should be close to max(r_c) in ps generation
All pots = -2*Zval/r beyond r=  2.7302
Using large-core scheme for Vlocal

atom: Estimated core radius    2.73018
atom: Maximum radius for 4*pi*r*r*local-pseudopot. charge    3.01733
atom: Maximum radius for r*vlocal+2*Zval:    2.76453

KBgen: Kleinman-Bylander projectors: 
GHOST: No ghost state for L =  0
   l= 0   rc=  2.047986   el= -1.482689   Ekb=  4.473766   kbcos=  0.320130
   l= 1   rc=  2.047986   el= -1.050151   Ekb=  2.808993   kbcos=  0.303763
   l= 1   rc=  2.047986   el= -0.425295   Ekb=  1.996072   kbcos=  0.016093
GHOST: No ghost state for L =  2
   l= 2   rc=  2.022544   el= -1.890984   Ekb=-12.596121   kbcos= -0.696221
GHOST: No ghost state for L =  3
   l= 3   rc=  2.047986   el= -0.275065   Ekb= -1.954499   kbcos= -0.028175
KBgen: More than one KB projector for some l shell(s)
KBgen: ghost-state analysis will not be performed

KBgen: Total number of  Kleinman-Bylander projectors:   19
atom: -------------------------------------------------------------------------

atom: SANKEY-TYPE ORBITALS:
atom: Selected multiple-zeta basis: split     

atom: basis set generated from the ionic configuration used
atom: to generate the pseudopotential

SPLIT: Orbitals with angular momentum L= 0

SPLIT: Basis orbitals for state 4s

SPLIT: PAO cut-off radius determined from an
SPLIT: energy shift=  0.003675 Ry

   izeta = 1
                 lambda =    1.000000
                     rc =    6.308440
                 energy =   -1.479221
                kinetic =    0.442339
    potential(screened) =   -1.921560
       potential(ionic) =   -6.621686

   izeta = 2
                 rmatch =    5.037372
              splitnorm =    0.150000
                 energy =   -1.401872
                kinetic =    0.694761
    potential(screened) =   -2.096634
       potential(ionic) =   -7.083320

SPLIT: Orbitals with angular momentum L= 2

SPLIT: Basis orbitals for state 3d

SPLIT: PAO cut-off radius determined from an
SPLIT: energy shift=  0.003675 Ry

   izeta = 1
                 lambda =    1.000000
                     rc =    4.228642
                 energy =   -1.887728
                kinetic =    9.621385
    potential(screened) =  -11.509113
       potential(ionic) =  -19.015244

   izeta = 2
                 rmatch =    2.099834
              splitnorm =    0.150000
                 energy =   -1.426594
                kinetic =   13.244057
    potential(screened) =  -14.670651
       potential(ionic) =  -22.733758

POLgen: Perturbative polarization orbital with L=  1

POLgen: Polarization orbital for state 4s

   izeta = 1
                     rc =    6.308440
                 energy =   -1.063676
                kinetic =    0.818583
    potential(screened) =   -1.882259
       potential(ionic) =   -6.291436
atom: Total number of Sankey-type orbitals: 15

atm_pop: Valence configuration (for local Pseudopot. screening):
 4s( 2.00)                                                            
 4p( 0.00)                                                            
 3d( 6.00)                                                            
Vna: chval, zval:    8.00000   8.00000

Vna:  Cut-off radius for the neutral-atom potential:   6.308440
comcore: Pseudo-core radius Rcore=  3.685395

atom: _________________________________________________________________________

prinput: Basis input ----------------------------------------------------------

PAO.BasisType split     

%block ChemicalSpeciesLabel
    1    7 N                       # Species index, atomic number, species label
    2    6 C                       # Species index, atomic number, species label
    3    1 H                       # Species index, atomic number, species label
    4   26 Fe2                     # Species index, atomic number, species label
%endblock ChemicalSpeciesLabel

%block PAO.Basis                 # Define Basis set
N                     2                    # Species label, number of l-shells
 n=2   0   2                         # n, l, Nzeta 
   4.389      2.942   
   1.000      1.000   
 n=2   1   2 P   1                   # n, l, Nzeta, Polarization, NzetaPol
   5.496      3.092   
   1.000      1.000   
C                     2                    # Species label, number of l-shells
 n=2   0   2                         # n, l, Nzeta 
   4.994      3.475   
   1.000      1.000   
 n=2   1   2 P   1                   # n, l, Nzeta, Polarization, NzetaPol
   6.254      3.746   
   1.000      1.000   
H                     1                    # Species label, number of l-shells
 n=1   0   2 P   1                   # n, l, Nzeta, Polarization, NzetaPol
   6.047      4.053   
   1.000      1.000   
Fe2                   2   2.000            # Label, l-shells, ionic net charge
 n=4   0   2 P   1                   # n, l, Nzeta, Polarization, NzetaPol
   6.308      5.037   
   1.000      1.000   
 n=3   2   2                         # n, l, Nzeta 
   4.229      2.100   
   1.000      1.000   
%endblock PAO.Basis

prinput: ----------------------------------------------------------------------

coor:   Atomic-coordinates input format  =     Fractional

siesta: Atomic coordinates (Bohr) and species
siesta:     12.47098   8.22175  11.99473  1        1
siesta:     11.84486  12.03346   8.42303  1        2
siesta:     12.26285  12.02324  15.55262  1        3
siesta:     12.49215  15.83257  12.00456  1        4
siesta:     12.37816   6.61737   9.89600  2        5
siesta:     11.68378   9.94492   6.79022  2        6
siesta:     12.60385   6.61435  14.03220  2        7
siesta:     11.69850  14.12711   6.79538  2        8
siesta:     11.96408   7.41325   7.46540  2        9
siesta:     12.56371   3.99989  10.67151  2       10
siesta:     11.35731  10.73496   4.24285  2       11
siesta:     12.70211   3.99764  13.24709  2       12
siesta:     11.36664  13.34575   4.24608  2       13
siesta:     12.49606   7.41648  16.53554  2       14
siesta:     11.99509  16.65532   7.47681  2       15
siesta:     12.28575   9.90608  17.21682  2       16
siesta:     12.41136  17.44271   9.90974  2       17
siesta:     12.29399  14.13601  17.22234  2       18
siesta:     12.63051  17.43411  14.04629  2       19
siesta:     12.51571  16.62631  16.54750  2       20
siesta:     12.19667  10.73019  19.80686  2       21
siesta:     12.61042  20.05719  10.69211  2       22
siesta:     12.20147  13.30542  19.81025  2       23
siesta:     12.74422  20.05218  13.26795  2       24
siesta:     11.84083   6.00907   5.97954  3       25
siesta:     12.54519   2.40767   9.39645  3       26
siesta:     11.19062   9.47702   2.64567  3       27
siesta:     12.81916   2.40585  14.51648  3       28
siesta:     11.20898  14.60882   2.65206  3       29
siesta:     12.55044   6.00641  18.01822  3       30
siesta:     11.88199  18.06375   5.99421  3       31
siesta:     12.57537  18.03248  18.03369  3       32
siesta:     12.16999   9.46427  21.40610  3       33
siesta:     12.60273  21.65266   9.42104  3       34
siesta:     12.17953  14.56719  21.41285  3       35
siesta:     12.86790  21.64004  14.54165  3       36
siesta:     12.62675  12.02690  12.02716  4       37

siesta: System type = slab      

initatomlists: Number of atoms, orbitals, and projectors:     37   387   511

coxmol: Writing XMOL coordinates into file ip.xyz                                                              

siesta: ******************** Simulation parameters ****************************
siesta:
siesta: The following are some of the parameters of the simulation.
siesta: A complete list of the parameters used, including default values,
siesta: can be found in file out.fdf
siesta:
redata: Spin configuration                          = none
redata: Number of spin components                   = 1
redata: Time-Reversal Symmetry                      = T
redata: Spin spiral                                 = F
redata: Long output                                 =   F
redata: Number of Atomic Species                    =        4
redata: Charge density info will appear in .RHO file
redata: Write Mulliken Pop.                         = Atomic and Orbital charges
redata: Matel table size (NRTAB)                    =     1024
redata: Mesh Cutoff                                 =   370.0000 Ry
redata: Net charge of the system                    =     0.0000 |e|
redata: Min. number of SCF Iter                     =        0
redata: Max. number of SCF Iter                     =      300
redata: SCF convergence failure will abort job
redata: SCF mix quantity                            = Hamiltonian
redata: Mix DM or H after convergence               =   F
redata: Recompute H after scf cycle                 =   F
redata: Mix DM in first SCF step                    =   T
redata: Write Pulay info on disk                    =   F
redata: New DM Occupancy tolerance                  = 0.000000000001
redata: No kicks to SCF
redata: DM Mixing Weight for Kicks                  =     0.5000
redata: Require Harris convergence for SCF          =   F
redata: Harris energy tolerance for SCF             =     0.000100 eV
redata: Require DM convergence for SCF              =   T
redata: DM tolerance for SCF                        =     0.000010
redata: Require EDM convergence for SCF             =   F
redata: EDM tolerance for SCF                       =     0.001000 eV
redata: Require H convergence for SCF               =   T
redata: Hamiltonian tolerance for SCF               =     0.001000 eV
redata: Require (free) Energy convergence for SCF   =   F
redata: (free) Energy tolerance for SCF             =     0.000100 eV
redata: Using Saved Data (generic)                  =   T
redata: Use continuation files for DM               =   T
redata: Neglect nonoverlap interactions             =   F
redata: Method of Calculation                       = Diagonalization
redata: Electronic Temperature                      =   290.1109 K
redata: Fix the spin of the system                  =   F
redata: Max. number of TDED Iter                    =        1
redata: Number of TDED substeps                     =        3
redata: Dynamics option                             = CG coord. optimization
redata: Variable cell                               =   F
redata: Use continuation files for CG               =   T
redata: Max atomic displ per move                   =     0.1000 Ang
redata: Maximum number of optimization moves        =       50
redata: Force tolerance                             =     0.0400 eV/Ang
mix.SCF: Pulay mixing                            = Pulay
mix.SCF:    Variant                              = stable
mix.SCF:    History steps                        = 4
mix.SCF:    Linear mixing weight                 =     0.020000
mix.SCF:    Mixing weight                        =     0.020000
mix.SCF:    SVD condition                        = 0.1000E-07
redata: ***********************************************************************

%block SCF.Mixers
  Pulay
%endblock SCF.Mixers

%block SCF.Mixer.Pulay
  # Mixing method
  method pulay
  variant stable

  # Mixing options
  weight 0.0200
  weight.linear 0.0200
  history 4
%endblock SCF.Mixer.Pulay

DM_history_depth set to one: no extrapolation allowed by default for geometry relaxation
Size of DM history Fstack: 1
Total number of electrons:   120.000000
Total ionic charge:   120.000000
k-point displ. along   2 input, could be:     0.00    0.50
k-point displ. along   3 input, could be:     0.00    0.50
 Kpoints in:            4 . Kpoints trimmed:            4

siesta: k-point coordinates (Bohr**-1) and weights:
siesta:          1  0.000000E+00  0.000000E+00  0.000000E+00   0.250000E+00
siesta:          2  0.000000E+00  0.130581E+00  0.000000E+00   0.250000E+00
siesta:          3  0.000000E+00  0.000000E+00  0.130581E+00   0.250000E+00
siesta:          4  0.000000E+00  0.130581E+00  0.130581E+00   0.250000E+00

siesta: k-grid: Number of k-points =         4
siesta: k-points from Monkhorst-Pack grid
siesta: k-cutoff (effective) =     6.366 Ang
siesta: k-point supercell and displacements
siesta: k-grid:    1   0   0      0.000
siesta: k-grid:    0   2   0      0.000
siesta: k-grid:    0   0   2      0.000

diag: Algorithm                                     = D&C
diag: Used triangular part                          = Lower
diag: Absolute tolerance                            =  0.100E-15
diag: Orthogonalization factor                      =  0.100E-05
diag: Memory factor                                 =  1.0000
Using current reciprocal lattice vectors for BandLinesScale
Beware any cell changes by the end of the run
Using current reciprocal lattice vectors for BandLinesScale
Beware any cell changes by the end of the run

superc: Internal auxiliary supercell:     1 x     3 x     3  =       9
superc: Number of atoms, orbitals, and projectors:    333   3483   4599


ts: **************************************************************
ts: Save H and S matrices                           =    F
ts: Save DM and EDM matrices                        =    F
ts: Only save the overlap matrix S                  =    F
ts: **************************************************************

************************ Begin: TS CHECKS AND WARNINGS ************************
************************ End: TS CHECKS AND WARNINGS **************************


                     ====================================
                        Begin CG opt. move =      0
                     ====================================

outcoor: Atomic coordinates (fractional):                   
    0.51836038    0.34173974    0.49856496   1       1  N
    0.49233538    0.50017476    0.35010618   1       2  N
    0.50970918    0.49974984    0.64644957   1       3  N
    0.51924014    0.65808588    0.49897340   1       4  N
    0.51450217    0.27505326    0.41133052   2       5  C
    0.48564002    0.41336373    0.28223756   2       6  C
    0.52388305    0.27492756    0.58325291   2       7  C
    0.48625189    0.58719790    0.28245199   2       8  C
    0.49729091    0.30813414    0.31030166   2       9  C
    0.52221471    0.16625687    0.44356468   2      10  C
    0.47207022    0.44620192    0.17635527   2      11  C
    0.52796745    0.16616338    0.55061972   2      12  C
    0.47245824    0.55472028    0.17648956   2      13  C
    0.51940268    0.30826846    0.68730503   2      14  C
    0.49857986    0.69228375    0.31077608   2      15  C
    0.51066119    0.41174960    0.71562284   2      16  C
    0.51588219    0.72501195    0.41190156   2      17  C
    0.51100367    0.58756787    0.71585220   2      18  C
    0.52499133    0.72465455    0.58383882   2      19  C
    0.52021956    0.69107807    0.68780226   2      20  C
    0.50695848    0.44600397    0.82327872   2      21  C
    0.52415639    0.83368349    0.44442087   2      22  C
    0.50715798    0.55304408    0.82341933   2      23  C
    0.52971751    0.83347535    0.55148685   2      24  C
    0.49216807    0.24976894    0.24854162   3      25  H
    0.52144492    0.10007545    0.39056659   3      26  H
    0.46514159    0.39391547    0.10996804   3      27  H
    0.53283268    0.09999999    0.60338217   3      28  H
    0.46590504    0.60722035    0.11023355   3      29  H
    0.52166331    0.24965820    0.74893308   3      30  H
    0.49387881    0.75082570    0.24915117   3      31  H
    0.52269930    0.74952573    0.74957639   3      32  H
    0.50584942    0.39338526    0.88975155   3      33  H
    0.52383667    0.89999998    0.39158851   3      34  H
    0.50624609    0.60548997    0.89003193   3      35  H
    0.53485841    0.89947534    0.60442841   3      36  H
    0.52483505    0.49990222    0.49991283   4      37  Fe2

superc: Internal auxiliary supercell:     1 x     3 x     3  =       9
superc: Number of atoms, orbitals, and projectors:    333   3483   4599

outcell: Unit cell vectors (Ang):
       12.731213    0.000000    0.000000
        0.000000   12.731213    0.000000
        0.000000    0.000000   12.731213

outcell: Cell vector modules (Ang)   :   12.731213   12.731213   12.731213
outcell: Cell angles (23,13,12) (deg):     90.0000     90.0000     90.0000
outcell: Cell volume (Ang**3)        :   2063.5230
<dSpData1D:S at geom step 0
  <sparsity:sparsity for geom step 0
    nrows_g=387 nrows=387 sparsity=1.0883 nnzs=162989, refcount: 7>
  <dData1D:(new from dSpData1D) n=162989, refcount: 1>
refcount: 1>
new_DM -- step:     1
Initializing Density Matrix...

Attempting to read DM from file... Succeeded...
DM from file:
<dSpData2D:IO-DM: ip.DM
  <sparsity:IO-DM: ip.DM
    nrows_g=387 nrows=387 sparsity=1.0883 nnzs=162989, refcount: 1>
  <dData2D:(new from dSpData2D) n=162989 m=1, refcount: 1>
refcount: 1>
DM to be used:
<dSpData2D:Re-structured SpM
  <sparsity:sparsity for geom step 0
    nrows_g=387 nrows=387 sparsity=1.0883 nnzs=162989, refcount: 8>
  <dData2D:(new in restruct) n=162989 m=1, refcount: 1>
refcount: 1>
No. of atoms with KB's overlaping orbs in proc 0. Max # of overlaps:      53     275

InitMesh: MESH = 150 x 150 x 150 = 3375000
InitMesh: Mesh cutoff (required, used) =   370.000   383.658 Ry
New grid distribution [1]: sub = 2

stepf: Fermi-Dirac step function

siesta: Program's energy decomposition (eV):
siesta: Ebs     =     -1503.348788
siesta: Eions   =      6065.232289
siesta: Ena     =       701.455086
siesta: Ekin    =      3866.261136
siesta: Enl     =     -1843.647281
siesta: Eso     =         0.000000
siesta: Edftu   =         0.000000
siesta: DEna    =       -93.076337
siesta: DUscf   =        15.628544
siesta: DUext   =         0.000000
siesta: Ex      =     -1601.585348
siesta: Ec      =      -143.862055
siesta: Exc     =     -1745.447404
siesta: eta*DQ  =         0.000000
siesta: Emadel  =         0.000000
siesta: Emeta   =         0.000000
siesta: Emolmec =         0.000000
siesta: Ekinion =         0.000000
siesta: Eharris =     -5164.058227
siesta: Etot    =     -5164.058544
siesta: FreeEng =     -5164.150837

        iscf     Eharris(eV)        E_KS(eV)     FreeEng(eV)     dDmax    Ef(eV) dHmax(eV)
   scf:    1    -5164.058227    -5164.058544    -5164.150837  0.005721 -4.472746  0.022163
timer: Routine,Calls,Time,% = IterSCF        1       9.954   8.97
   scf:    2    -5164.058690    -5164.058620    -5164.150866  0.001484 -4.472946  0.011255
   scf:    3    -5164.058802    -5164.058716    -5164.150893  0.002222 -4.473120  0.006252
   scf:    4    -5164.058831    -5164.058779    -5164.150901  0.002483 -4.472810  0.003233
   scf:    5    -5164.058777    -5164.058778    -5164.150902  0.000465 -4.472739  0.000442
   scf:    6    -5164.058777    -5164.058778    -5164.150902  0.000021 -4.472744  0.000349
   scf:    7    -5164.058774    -5164.058776    -5164.150902  0.000101 -4.472763  0.000213
   scf:    8    -5164.058775    -5164.058775    -5164.150902  0.000033 -4.472765  0.000165
   scf:    9    -5164.058772    -5164.058774    -5164.150902  0.000052 -4.472765  0.000112
   scf:   10    -5164.058773    -5164.058774    -5164.150902  0.000008 -4.472765  0.000105

SCF Convergence by DM+H criterion
max |DM_out - DM_in|         :     0.0000084718
max |H_out - H_in|      (eV) :     0.0001054226
SCF cycle converged after 10 iterations

Using DM_out to compute the final energy and forces
No. of atoms with KB's overlaping orbs in proc 0. Max # of overlaps:      53     275

siesta: E_KS(eV) =            -5164.0588

siesta: E_KS - E_eggbox =     -5164.0588

siesta: Atomic forces (eV/Ang):
     1    0.261926    2.331910   -0.469591
     2    0.734894   -0.002508    1.281589
     3    0.609579    0.000621    0.028641
     4    0.249246   -2.328450   -0.476118
     5    0.037323   -0.955712    0.005408
     6   -0.034687   -0.599241   -0.343455
     7    0.097199   -1.049912    1.133669
     8   -0.031004    0.598992   -0.341840
     9   -0.046569    0.452847   -0.318428
    10   -0.014348    0.431041   -0.034647
    11   -0.062296    0.614935   -0.137411
    12   -0.011064    0.410911    0.008500
    13   -0.066232   -0.614706   -0.138929
    14    0.036307   -0.503563   -0.482470
    15   -0.048887   -0.453069   -0.319290
    16   -0.117739    0.701661    0.692862
    17    0.043343    0.956473    0.006166
    18   -0.120687   -0.703484    0.692581
    19    0.101109    1.046636    1.135802
    20    0.038514    0.506458   -0.482634
    21   -0.018430   -0.161596   -0.341771
    22   -0.017452   -0.431807   -0.034456
    23   -0.018343    0.164121   -0.341187
    24   -0.013626   -0.410426    0.006404
    25   -0.027567   -0.449587   -0.490023
    26   -0.014223   -0.590710   -0.480620
    27   -0.087872   -0.473572   -0.600955
    28    0.044163   -0.600189    0.479948
    29   -0.084425    0.475791   -0.599295
    30    0.022853   -0.471725    0.493851
    31   -0.024091    0.451210   -0.488773
    32    0.024592    0.470263    0.494944
    33   -0.006663   -0.473014    0.623229
    34   -0.008311    0.592545   -0.479343
    35   -0.004996    0.471050    0.624900
    36    0.048247    0.598128    0.481615
    37   -1.447714    0.005622   -0.797767
----------------------------------------
   Tot    0.022072    0.007944   -0.008894
----------------------------------------
   Max    2.331910
   Res    0.571501    sqrt( Sum f_i^2 / 3N )
----------------------------------------
   Max    2.331910    constrained

Stress tensor Voigt[x,y,z,yz,xz,xy] (kbar):        0.08      -11.84      -18.95        0.02       -1.05       -0.03
(Free)E + p*V (eV/cell)    -5150.9712
Target enthalpy (eV/cell)    -5164.1509

mulliken: Atomic and Orbital Populations:

Species: N                   
Atom  Qatom  Qorb
               2s      2s      2py     2pz     2px     2py     2pz     2px     
               3Pdxy   3Pdyz   3Pdz2   3Pdxz   3Pdx2-y2
   1  5.053   0.768   0.549   0.787   0.496   1.224   0.437   0.570   0.102
              0.021   0.043   0.023   0.025   0.008
   2  5.065   0.777   0.548   0.534   0.764   1.244   0.536   0.448   0.098
              0.026   0.044   0.016   0.017   0.015
   3  5.043   0.760   0.563   0.560   0.664   1.275   0.511   0.513   0.077
              0.025   0.046   0.015   0.018   0.015
   4  5.053   0.768   0.549   0.786   0.496   1.225   0.437   0.570   0.102
              0.021   0.043   0.023   0.025   0.008

Species: C                   
Atom  Qatom  Qorb
               2s      2s      2py     2pz     2px     2py     2pz     2px     
               3Pdxy   3Pdyz   3Pdz2   3Pdxz   3Pdx2-y2
   5  3.995   0.319   0.598   0.597   0.690   0.578   0.353   0.267   0.342
              0.048   0.064   0.056   0.056   0.028
   6  3.996   0.312   0.601   0.679   0.600   0.583   0.272   0.357   0.337
              0.056   0.064   0.058   0.048   0.027
   7  4.006   0.336   0.588   0.608   0.700   0.570   0.347   0.262   0.341
              0.049   0.063   0.057   0.058   0.027
   8  3.996   0.313   0.601   0.678   0.600   0.583   0.273   0.358   0.337
              0.056   0.064   0.058   0.048   0.027
   9  3.795   0.100   0.723   0.363   0.342   0.648   0.588   0.606   0.289
              0.028   0.047   0.023   0.026   0.013
  10  3.788   0.154   0.683   0.293   0.368   0.684   0.628   0.583   0.258
              0.019   0.047   0.029   0.031   0.010
  11  3.788   0.155   0.682   0.370   0.301   0.679   0.576   0.626   0.262
              0.032   0.046   0.024   0.019   0.016
  12  3.790   0.153   0.683   0.293   0.369   0.686   0.629   0.583   0.260
              0.019   0.047   0.029   0.031   0.010
  13  3.788   0.155   0.682   0.369   0.302   0.679   0.578   0.625   0.262
              0.032   0.046   0.024   0.019   0.016
  14  3.800   0.100   0.720   0.370   0.331   0.660   0.586   0.612   0.287
              0.028   0.047   0.022   0.027   0.012
  15  3.795   0.100   0.722   0.362   0.343   0.649   0.589   0.605   0.289
              0.028   0.047   0.023   0.026   0.013
  16  3.986   0.305   0.606   0.669   0.591   0.583   0.282   0.363   0.334
              0.057   0.065   0.057   0.047   0.027
  17  3.995   0.319   0.598   0.598   0.690   0.578   0.353   0.268   0.342
              0.048   0.064   0.056   0.056   0.028
  18  3.986   0.305   0.606   0.669   0.590   0.584   0.282   0.363   0.334
              0.057   0.065   0.057   0.047   0.027
  19  4.006   0.336   0.588   0.608   0.699   0.570   0.347   0.262   0.341
              0.049   0.063   0.057   0.058   0.027
  20  3.800   0.100   0.720   0.372   0.329   0.660   0.585   0.613   0.287
              0.028   0.047   0.022   0.027   0.012
  21  3.784   0.155   0.683   0.369   0.294   0.672   0.582   0.630   0.263
              0.032   0.047   0.024   0.019   0.015
  22  3.788   0.154   0.683   0.291   0.369   0.684   0.629   0.582   0.258
              0.019   0.047   0.029   0.031   0.010
  23  3.784   0.155   0.683   0.370   0.292   0.672   0.580   0.631   0.263
              0.032   0.047   0.024   0.019   0.015
  24  3.790   0.153   0.683   0.294   0.367   0.685   0.627   0.584   0.260
              0.019   0.047   0.029   0.031   0.010

Species: H                   
Atom  Qatom  Qorb
               1s      1s      2Ppy    2Ppz    2Ppx    
  25  1.238   0.806   0.328   0.032   0.034   0.037
  26  1.256   0.818   0.324   0.042   0.032   0.040
  27  1.256   0.818   0.325   0.032   0.041   0.040
  28  1.257   0.819   0.324   0.042   0.032   0.041
  29  1.256   0.818   0.325   0.032   0.041   0.040
  30  1.240   0.808   0.326   0.032   0.034   0.039
  31  1.238   0.806   0.328   0.032   0.034   0.037
  32  1.240   0.808   0.326   0.032   0.034   0.039
  33  1.254   0.816   0.326   0.032   0.041   0.040
  34  1.256   0.817   0.325   0.042   0.032   0.040
  35  1.254   0.815   0.326   0.032   0.041   0.040
  36  1.257   0.819   0.324   0.042   0.032   0.041

Species: Fe2                 
Atom  Qatom  Qorb
               4s      4s      3dxy    3dyz    3dz2    3dxz    3dx2-y2 3dxy    
               3dyz    3dz2    3dxz    3dx2-y2 4Ppy    4Ppz    4Ppx    
  37  7.329   0.704   0.009   1.394   1.947   0.910   1.096   1.199  -0.063
             -0.067  -0.042  -0.044  -0.044   0.114   0.132   0.084

mulliken: Qtot =      120.000

iocg: Reading CG continuation file

                     ====================================
                        Begin CG opt. move =      1
                     ====================================

outcoor: Atomic coordinates (fractional):                   
    0.51923510    0.34952733    0.49699667   1       1  N
    0.49478964    0.50016639    0.35438607   1       2  N
    0.51174496    0.49975192    0.64654547   1       3  N
    0.52007252    0.65030984    0.49738331   1       4  N
    0.51462680    0.27186159    0.41134855   2       5  C
    0.48552418    0.41136256    0.28109062   2       6  C
    0.52420765    0.27142122    0.58703898   2       7  C
    0.48614836    0.58919823    0.28131044   2       8  C
    0.49713538    0.30964646    0.30923826   2       9  C
    0.52216679    0.16769640    0.44344900   2      10  C
    0.47186218    0.44825557    0.17589635   2      11  C
    0.52793049    0.16753569    0.55064812   2      12  C
    0.47223706    0.55266740    0.17602558   2      13  C
    0.51952392    0.30658677    0.68569383   2      14  C
    0.49841659    0.69077069    0.30970980   2      15  C
    0.51026799    0.41409290    0.71793661   2      16  C
    0.51602694    0.72820616    0.41192212   2      17  C
    0.51060063    0.58521847    0.71816503   2      18  C
    0.52532900    0.72814995    0.58763202   2      19  C
    0.52034818    0.69276942    0.68619050   2      20  C
    0.50689694    0.44546439    0.82213728   2      21  C
    0.52409810    0.83224141    0.44430582   2      22  C
    0.50709673    0.55359209    0.82227984   2      23  C
    0.52967199    0.83210467    0.55150825   2      24  C
    0.49207601    0.24826753    0.24690519   3      25  H
    0.52139743    0.09810279    0.38896152   3      26  H
    0.46484813    0.39233395    0.10796113   3      27  H
    0.53298017    0.09799568    0.60498499   3      28  H
    0.46562309    0.60880929    0.10823219   3      29  H
    0.52173964    0.24808288    0.75058224   3      30  H
    0.49379837    0.75233254    0.24751891   3      31  H
    0.52278143    0.75109616    0.75122920   3      32  H
    0.50582716    0.39180559    0.89183289   3      33  H
    0.52380892    0.90197877    0.38998770   3      34  H
    0.50622940    0.60706307    0.89211885   3      35  H
    0.53501954    0.90147276    0.60603680   3      36  H
    0.52000023    0.49992099    0.49724860   4      37  Fe2

superc: Internal auxiliary supercell:     1 x     3 x     3  =       9
superc: Number of atoms, orbitals, and projectors:    333   3483   4599

outcell: Unit cell vectors (Ang):
       12.731213    0.000000    0.000000
        0.000000   12.731213    0.000000
        0.000000    0.000000   12.731213

outcell: Cell vector modules (Ang)   :   12.731213   12.731213   12.731213
outcell: Cell angles (23,13,12) (deg):     90.0000     90.0000     90.0000
outcell: Cell volume (Ang**3)        :   2063.5230
<dSpData1D:S at geom step 1
  <sparsity:sparsity for geom step 1
    nrows_g=387 nrows=387 sparsity=1.0889 nnzs=163079, refcount: 7>
  <dData1D:(new from dSpData1D) n=163079, refcount: 1>
refcount: 1>
new_DM -- step:     2
Re-using DM from previous geometries...
Number of DMs in history: 1
 DM extrapolation coefficients: 
1   1.00000
New DM after history re-use:
<dSpData2D:SpM extrapolated using coords
  <sparsity:sparsity for geom step 1
    nrows_g=387 nrows=387 sparsity=1.0889 nnzs=163079, refcount: 9>
  <dData2D:(temp array for extrapolation) n=163079 m=1, refcount: 1>
refcount: 1>
Note: For starting DM, Qtot, Tr[D*S] =        120.00000000        119.51575783
No. of atoms with KB's overlaping orbs in proc 0. Max # of overlaps:      53     275

InitMesh: MESH = 150 x 150 x 150 = 3375000
InitMesh: Mesh cutoff (required, used) =   370.000   383.658 Ry
New grid distribution [1]: sub = 2

        iscf     Eharris(eV)        E_KS(eV)     FreeEng(eV)     dDmax    Ef(eV) dHmax(eV)
   scf:    1    -5084.951206    -5136.363311    -5136.387150  1.244865 -3.819081 33.796227
   scf:    2    -3904.770953    -4786.755225    -4786.755225  0.952844 -5.910297146.029408
   scf:    3    -5292.721653    -5093.953639    -5094.021549  0.936697 -5.533857 56.801271
   scf:    4    -5135.170307    -5115.659415    -5115.716631  0.339042 -5.534987 45.945462
   scf:    5    -5117.664202    -5116.664629    -5116.721101  0.012143 -5.534137 45.416459
   scf:    6    -4824.211462    -5085.693132    -5085.695009  1.451958 -2.957539 58.065311
   scf:    7    -5123.272357    -5159.327135    -5159.395154  1.715218 -4.929222 12.773926
   scf:    8    -5162.124895    -5160.830303    -5160.897619  0.098549 -4.784882  9.601804
   scf:    9    -5163.252196    -5162.765420    -5162.838011  0.202279 -4.435900  2.458145
   scf:   10    -5076.635961    -5134.616014    -5134.618962  2.007878 -3.769045 35.099967
   scf:   11    -4993.164360    -5126.108692    -5126.152539  1.300921 -5.517314 40.458080
   scf:   12    -5154.601825    -5141.350151    -5141.395354  0.251293 -5.442280 31.260946
   scf:   13    -5170.205324    -5161.932053    -5162.000111  0.597180 -4.676748  6.997097
   scf:   14    -5162.862734    -5162.430782    -5162.499233  0.050079 -4.600688  5.170667
   scf:   15    -5143.038462    -5157.693218    -5157.753436  1.429171 -4.202568 15.400408
   scf:   16    -5134.245875    -5157.147896    -5157.215100  1.108592 -5.079253 16.517478
   scf:   17    -5164.952583    -5161.756975    -5161.824345  0.206759 -4.729277  8.324283
   scf:   18    -5163.879621    -5163.218378    -5163.294709  0.128463 -4.515102  2.241274
   scf:   19    -5163.286892    -5163.347278    -5163.432843  0.171613 -4.454110  0.923807
   scf:   20    -5162.881809    -5163.208334    -5163.281543  0.207752 -4.503228  2.187369
   scf:   21    -5163.035243    -5163.146972    -5163.231236  0.180006 -4.576207  3.071192
   scf:   22    -5163.190722    -5163.356173    -5163.450184  0.357473 -4.515885  0.808743
   scf:   23    -5163.218310    -5163.339605    -5163.431114  0.169112 -4.556426  1.360097
   scf:   24    -5163.349269    -5163.372575    -5163.466331  0.147536 -4.536931  0.206368
   scf:   25    -5163.371875    -5163.377077    -5163.469568  0.079938 -4.542258  0.427919
   scf:   26    -5163.378461    -5163.379306    -5163.472212  0.029587 -4.536233  0.104176
   scf:   27    -5163.385204    -5163.382814    -5163.474795  0.047978 -4.527331  0.062414
   scf:   28    -5163.383382    -5163.383108    -5163.475014  0.005522 -4.526204  0.067334
   scf:   29    -5163.383066    -5163.383205    -5163.475357  0.011788 -4.527931  0.048318
   scf:   30    -5163.384092    -5163.383666    -5163.475656  0.008041 -4.527138  0.042984
   scf:   31    -5163.385704    -5163.385010    -5163.476258  0.022656 -4.528686  0.044533
   scf:   32    -5163.384812    -5163.384933    -5163.476409  0.009628 -4.530667  0.027558
   scf:   33    -5163.384814    -5163.384877    -5163.476442  0.003491 -4.531258  0.023866
   scf:   34    -5163.384640    -5163.384768    -5163.476483  0.005501 -4.532421  0.015419
   scf:   35    -5163.384896    -5163.384836    -5163.476504  0.002062 -4.532402  0.006634
   scf:   36    -5163.384816    -5163.384828    -5163.476517  0.002166 -4.532844  0.004559
   scf:   37    -5163.384843    -5163.384836    -5163.476519  0.000273 -4.532894  0.003584
   scf:   38    -5163.384874    -5163.384855    -5163.476520  0.000613 -4.532778  0.003176
   scf:   39    -5163.384920    -5163.384888    -5163.476521  0.001409 -4.532262  0.005465
   scf:   40    -5163.384883    -5163.384885    -5163.476521  0.000139 -4.532274  0.005328
   scf:   41    -5163.384861    -5163.384873    -5163.476522  0.000559 -4.532346  0.004341
   scf:   42    -5163.384837    -5163.384855    -5163.476524  0.000649 -4.532345  0.001866
   scf:   43    -5163.384846    -5163.384851    -5163.476525  0.000179 -4.532359  0.001488
   scf:   44    -5163.384833    -5163.384842    -5163.476525  0.000447 -4.532417  0.000748
   scf:   45    -5163.384851    -5163.384847    -5163.476525  0.000139 -4.532410  0.000778
   scf:   46    -5163.384854    -5163.384850    -5163.476525  0.000166 -4.532373  0.000635
   scf:   47    -5163.384856    -5163.384853    -5163.476525  0.000159 -4.532311  0.000593
   scf:   48    -5163.384851    -5163.384852    -5163.476525  0.000046 -4.532315  0.000575
   scf:   49    -5163.384856    -5163.384854    -5163.476525  0.000068 -4.532307  0.000510
   scf:   50    -5163.384861    -5163.384857    -5163.476525  0.000155 -4.532288  0.000393
   scf:   51    -5163.384855    -5163.384856    -5163.476525  0.000029 -4.532293  0.000275
   scf:   52    -5163.384852    -5163.384854    -5163.476525  0.000063 -4.532306  0.000129
   scf:   53    -5163.384856    -5163.384855    -5163.476525  0.000047 -4.532303  0.000171
   scf:   54    -5163.384856    -5163.384856    -5163.476525  0.000029 -4.532299  0.000159
   scf:   55    -5163.384856    -5163.384856    -5163.476525  0.000029 -4.532293  0.000081
   scf:   56    -5163.384856    -5163.384856    -5163.476525  0.000013 -4.532290  0.000061
   scf:   57    -5163.384857    -5163.384856    -5163.476525  0.000047 -4.532283  0.000047
   scf:   58    -5163.384857    -5163.384857    -5163.476525  0.000012 -4.532280  0.000038
   scf:   59    -5163.384856    -5163.384857    -5163.476525  0.000005 -4.532280  0.000030

SCF Convergence by DM+H criterion
max |DM_out - DM_in|         :     0.0000046321
max |H_out - H_in|      (eV) :     0.0000297985
SCF cycle converged after 59 iterations

Using DM_out to compute the final energy and forces
No. of atoms with KB's overlaping orbs in proc 0. Max # of overlaps:      53     275

siesta: E_KS(eV) =            -5163.3849

siesta: Atomic forces (eV/Ang):
     1    0.149193   -3.137790    0.404218
     2   -0.055590    0.001442   -2.290104
     3    0.205431   -0.003891    0.592412
     4    0.165723    3.133765    0.412930
     5   -0.215450    3.756284   -0.446513
     6    0.136470    2.038698    0.746693
     7    0.059682    2.347569   -2.695750
     8    0.122110   -2.037664    0.741829
     9    0.183396   -2.756617   -0.144845
    10    0.063116   -2.045611   -0.602858
    11   -0.175391   -2.940588   -1.053484
    12    0.176065   -1.957300    1.058423
    13   -0.154089    2.942500   -1.047483
    14   -0.228394    1.014415    3.324540
    15    0.200605    2.756281   -0.141481
    16    0.289221   -2.450750   -2.037370
    17   -0.236700   -3.754101   -0.455467
    18    0.300367    2.455797   -2.034377
    19    0.050991   -2.339852   -2.704681
    20   -0.237322   -1.025155    3.326122
    21   -0.102604   -0.555727    2.222453
    22    0.075205    2.052416   -0.603291
    23   -0.100730    0.548992    2.225669
    24    0.184755    1.953119    1.067245
    25   -0.012443    0.317382    0.087154
    26   -0.005624    0.630766    0.480283
    27    0.010990    0.546212    0.457247
    28   -0.046291    0.555615   -0.513365
    29    0.007271   -0.547558    0.456017
    30   -0.024542    0.130045   -0.140735
    31   -0.013848   -0.318532    0.087327
    32   -0.025250   -0.129253   -0.141048
    33    0.008248    0.337452   -0.533023
    34   -0.008089   -0.633401    0.480509
    35    0.006776   -0.335063   -0.533231
    36   -0.047432   -0.553445   -0.513924
    37   -0.704837    0.002045    0.468064
----------------------------------------
   Tot    0.000990   -0.001501    0.006105
----------------------------------------
   Max    3.756284
   Res    1.355548    sqrt( Sum f_i^2 / 3N )
----------------------------------------
   Max    3.756284    constrained

Stress tensor Voigt[x,y,z,yz,xz,xy] (kbar):        0.01       -5.59      -12.75        0.01       -0.30       -0.01
(Free)E + p*V (eV/cell)    -5155.6042
Target enthalpy (eV/cell)    -5163.4765

mulliken: Atomic and Orbital Populations:

Species: N                   
Atom  Qatom  Qorb
               2s      2s      2py     2pz     2px     2py     2pz     2px     
               3Pdxy   3Pdyz   3Pdz2   3Pdxz   3Pdx2-y2
   1  5.144   0.965   0.451   0.764   0.709   1.347   0.414   0.369   0.021
              0.019   0.043   0.018   0.018   0.006
   2  5.075   0.845   0.520   0.640   0.698   1.300   0.431   0.473   0.056
              0.022   0.046   0.014   0.017   0.014
   3  5.059   0.790   0.544   0.581   0.708   1.264   0.494   0.482   0.080
              0.024   0.046   0.014   0.019   0.014
   4  5.144   0.965   0.451   0.763   0.709   1.348   0.414   0.369   0.021
              0.019   0.043   0.018   0.018   0.006

Species: C                   
Atom  Qatom  Qorb
               2s      2s      2py     2pz     2px     2py     2pz     2px     
               3Pdxy   3Pdyz   3Pdz2   3Pdxz   3Pdx2-y2
   5  3.956   0.298   0.617   0.571   0.601   0.581   0.375   0.334   0.331
              0.050   0.064   0.058   0.049   0.027
   6  3.967   0.290   0.617   0.639   0.564   0.583   0.310   0.380   0.337
              0.055   0.066   0.056   0.043   0.028
   7  3.943   0.265   0.625   0.557   0.617   0.580   0.382   0.327   0.345
              0.047   0.067   0.055   0.051   0.025
   8  3.967   0.290   0.617   0.638   0.564   0.583   0.310   0.380   0.337
              0.055   0.066   0.056   0.043   0.028
   9  3.805   0.114   0.714   0.380   0.351   0.649   0.576   0.589   0.294
              0.029   0.048   0.024   0.025   0.013
  10  3.818   0.175   0.672   0.320   0.394   0.670   0.612   0.561   0.275
              0.022   0.046   0.030   0.032   0.010
  11  3.805   0.180   0.666   0.389   0.327   0.653   0.570   0.598   0.281
              0.034   0.048   0.025   0.019   0.015
  12  3.807   0.176   0.674   0.320   0.391   0.667   0.609   0.559   0.269
              0.021   0.046   0.030   0.033   0.010
  13  3.805   0.180   0.666   0.387   0.328   0.653   0.571   0.597   0.281
              0.034   0.048   0.025   0.019   0.015
  14  3.795   0.116   0.719   0.372   0.359   0.636   0.571   0.600   0.283
              0.028   0.048   0.024   0.029   0.011
  15  3.805   0.114   0.714   0.378   0.352   0.649   0.577   0.588   0.294
              0.029   0.048   0.024   0.025   0.013
  16  3.992   0.315   0.601   0.638   0.600   0.590   0.298   0.363   0.337
              0.051   0.064   0.057   0.052   0.026
  17  3.956   0.298   0.617   0.571   0.602   0.581   0.376   0.333   0.331
              0.050   0.064   0.058   0.049   0.027
  18  3.992   0.315   0.601   0.638   0.600   0.590   0.298   0.363   0.337
              0.051   0.064   0.057   0.052   0.026
  19  3.943   0.265   0.625   0.558   0.616   0.580   0.382   0.327   0.345
              0.047   0.067   0.055   0.051   0.025
  20  3.795   0.116   0.719   0.373   0.357   0.635   0.570   0.601   0.283
              0.028   0.048   0.024   0.029   0.011
  21  3.808   0.179   0.666   0.395   0.316   0.678   0.555   0.613   0.268
              0.033   0.045   0.024   0.021   0.015
  22  3.818   0.175   0.672   0.319   0.395   0.670   0.613   0.560   0.275
              0.022   0.046   0.030   0.032   0.010
  23  3.808   0.179   0.666   0.396   0.315   0.678   0.554   0.614   0.268
              0.033   0.044   0.024   0.021   0.015
  24  3.808   0.176   0.674   0.322   0.390   0.667   0.608   0.560   0.270
              0.021   0.046   0.030   0.033   0.010

Species: H                   
Atom  Qatom  Qorb
               1s      1s      2Ppy    2Ppz    2Ppx    
  25  1.230   0.806   0.323   0.032   0.034   0.036
  26  1.235   0.799   0.327   0.041   0.031   0.037
  27  1.235   0.800   0.328   0.031   0.040   0.036
  28  1.235   0.798   0.328   0.041   0.030   0.037
  29  1.235   0.800   0.327   0.032   0.040   0.036
  30  1.227   0.801   0.326   0.031   0.035   0.035
  31  1.230   0.806   0.323   0.032   0.034   0.036
  32  1.227   0.801   0.326   0.031   0.035   0.035
  33  1.241   0.807   0.324   0.031   0.041   0.038
  34  1.235   0.799   0.327   0.041   0.031   0.037
  35  1.241   0.807   0.324   0.031   0.041   0.038
  36  1.235   0.798   0.328   0.041   0.031   0.037

Species: Fe2                 
Atom  Qatom  Qorb
               4s      4s      3dxy    3dyz    3dz2    3dxz    3dx2-y2 3dxy    
               3dyz    3dz2    3dxz    3dx2-y2 4Ppy    4Ppz    4Ppx    
  37  7.374   0.756   0.013   1.250   1.910   0.938   1.111   1.278  -0.049
             -0.057  -0.037  -0.040  -0.037   0.114   0.128   0.096

mulliken: Qtot =      120.000

                     ====================================
                        Begin CG opt. move =      2
                     ====================================

outcoor: Atomic coordinates (fractional):                   
    0.51867562    0.34454632    0.49799976   1       1  N
    0.49321987    0.50017174    0.35164861   1       2  N
    0.51044286    0.49975059    0.64648413   1       3  N
    0.51954012    0.65528347    0.49840035   1       4  N
    0.51454709    0.27390301    0.41133702   2       5  C
    0.48559827    0.41264253    0.28182421   2       6  C
    0.52400003    0.27366391    0.58461737   2       7  C
    0.48621458    0.58791880    0.28204059   2       8  C
    0.49723486    0.30867917    0.30991842   2       9  C
    0.52219744    0.16677567    0.44352299   2      10  C
    0.47199524    0.44694204    0.17618988   2      11  C
    0.52795413    0.16665795    0.55062996   2      12  C
    0.47237853    0.55398044    0.17632235   2      13  C
    0.51944638    0.30766239    0.68672437   2      14  C
    0.49852102    0.69173846    0.31039181   2      15  C
    0.51051948    0.41259410    0.71645670   2      16  C
    0.51593436    0.72616311    0.41190897   2      17  C
    0.51085842    0.58672117    0.71668572   2      18  C
    0.52511302    0.72591426    0.58520585   2      19  C
    0.52026591    0.69168762    0.68722139   2      20  C
    0.50693631    0.44580951    0.82286736   2      21  C
    0.52413538    0.83316378    0.44437941   2      22  C
    0.50713591    0.55324158    0.82300867   2      23  C
    0.52970110    0.83298137    0.55149456   2      24  C
    0.49213489    0.24922785    0.24795187   3      25  H
    0.52142780    0.09936452    0.38998813   3      26  H
    0.46503583    0.39334551    0.10924477   3      27  H
    0.53288584    0.09927766    0.60395981   3      28  H
    0.46580343    0.60779299    0.10951227   3      29  H
    0.52169082    0.24909047    0.74952742   3      30  H
    0.49384982    0.75136875    0.24856292   3      31  H
    0.52272890    0.75009170    0.75017205   3      32  H
    0.50584140    0.39281596    0.89050165   3      33  H
    0.52382667    0.90071312    0.39101159   3      34  H
    0.50624007    0.60605690    0.89078404   3      35  H
    0.53491648    0.90019519    0.60500806   3      36  H
    0.52309263    0.49990898    0.49895266   4      37  Fe2

superc: Internal auxiliary supercell:     1 x     3 x     3  =       9
superc: Number of atoms, orbitals, and projectors:    333   3483   4599

outcell: Unit cell vectors (Ang):
       12.731213    0.000000    0.000000
        0.000000   12.731213    0.000000
        0.000000    0.000000   12.731213

outcell: Cell vector modules (Ang)   :   12.731213   12.731213   12.731213
outcell: Cell angles (23,13,12) (deg):     90.0000     90.0000     90.0000
outcell: Cell volume (Ang**3)        :   2063.5230
<dSpData1D:S at geom step 2
  <sparsity:sparsity for geom step 2
    nrows_g=387 nrows=387 sparsity=1.0847 nnzs=162461, refcount: 7>
  <dData1D:(new from dSpData1D) n=162461, refcount: 1>
refcount: 1>
new_DM -- step:     3
Re-using DM from previous geometries...
Number of DMs in history: 1
 DM extrapolation coefficients: 
1   1.00000
New DM after history re-use:
<dSpData2D:SpM extrapolated using coords
  <sparsity:sparsity for geom step 2
    nrows_g=387 nrows=387 sparsity=1.0847 nnzs=162461, refcount: 9>
  <dData2D:(temp array for extrapolation) n=162461 m=1, refcount: 1>
refcount: 1>
Note: For starting DM, Qtot, Tr[D*S] =        120.00000000        120.23525251
No. of atoms with KB's overlaping orbs in proc 0. Max # of overlaps:      53     271

InitMesh: MESH = 150 x 150 x 150 = 3375000
InitMesh: Mesh cutoff (required, used) =   370.000   383.658 Ry
New grid distribution [1]: sub = 2

        iscf     Eharris(eV)        E_KS(eV)     FreeEng(eV)     dDmax    Ef(eV) dHmax(eV)
   scf:    1    -5153.122117    -5161.273845    -5161.340871  0.311984 -5.022796 11.607623
   scf:    2    -4154.104924    -4840.831380    -4840.831380  1.907617 -1.377451123.239639
   scf:    3    -5203.478334    -5163.089134    -5163.143812  1.924004 -4.469597  5.624782
   scf:    4    -5163.765431    -5163.448254    -5163.511264  0.098893 -4.509211  4.258490
   scf:    5    -5125.961304    -5149.471106    -5149.477001  0.462420 -3.950279 25.119613
   scf:    6    -5154.352212    -5163.299601    -5163.366179  1.726555 -4.765146  6.702825
   scf:    7    -5164.584048    -5164.252880    -5164.341127  0.206914 -4.563315  1.266191
   scf:    8    -5164.305077    -5164.292713    -5164.383580  0.063013 -4.527654  0.238697
   scf:    9    -5164.282581    -5164.290303    -5164.379951  0.045465 -4.531388  0.528331
   scf:   10    -5164.302514    -5164.300615    -5164.391842  0.048052 -4.514258  0.155105
   scf:   11    -5164.303198    -5164.307490    -5164.399113  0.086143 -4.525891  0.145787
   scf:   12    -5164.307624    -5164.307855    -5164.399830  0.023180 -4.522762  0.064861
   scf:   13    -5164.309754    -5164.309819    -5164.402360  0.040047 -4.523841  0.083388
   scf:   14    -5164.309774    -5164.309834    -5164.402487  0.004594 -4.522049  0.050403
   scf:   15    -5164.309718    -5164.310130    -5164.402556  0.030377 -4.512954  0.036298
   scf:   16    -5164.310443    -5164.310290    -5164.402709  0.002285 -4.512387  0.036454
   scf:   17    -5164.310913    -5164.310893    -5164.403296  0.022126 -4.512265  0.010089
   scf:   18    -5164.310922    -5164.310908    -5164.403304  0.000451 -4.512283  0.009647
   scf:   19    -5164.310955    -5164.310934    -5164.403324  0.002023 -4.512170  0.007747
   scf:   20    -5164.310932    -5164.310937    -5164.403336  0.002562 -4.511765  0.004237
   scf:   21    -5164.310942    -5164.310940    -5164.403339  0.000683 -4.511802  0.003742
   scf:   22    -5164.310940    -5164.310941    -5164.403342  0.001134 -4.511931  0.003069
   scf:   23    -5164.310922    -5164.310932    -5164.403345  0.000647 -4.512399  0.002772
   scf:   24    -5164.310923    -5164.310928    -5164.403345  0.000297 -4.512529  0.002616
   scf:   25    -5164.310926    -5164.310927    -5164.403346  0.000135 -4.512596  0.001656
   scf:   26    -5164.310940    -5164.310934    -5164.403346  0.000819 -4.512649  0.001104
   scf:   27    -5164.310936    -5164.310935    -5164.403346  0.000062 -4.512655  0.000981
   scf:   28    -5164.310936    -5164.310936    -5164.403347  0.000517 -4.512656  0.000471
   scf:   29    -5164.310935    -5164.310935    -5164.403347  0.000019 -4.512652  0.000421
   scf:   30    -5164.310935    -5164.310935    -5164.403347  0.000058 -4.512648  0.000392
   scf:   31    -5164.310937    -5164.310936    -5164.403347  0.000227 -4.512652  0.000336
   scf:   32    -5164.310936    -5164.310936    -5164.403347  0.000010 -4.512652  0.000312
   scf:   33    -5164.310935    -5164.310935    -5164.403347  0.000117 -4.512651  0.000229
   scf:   34    -5164.310935    -5164.310935    -5164.403347  0.000018 -4.512646  0.000146
   scf:   35    -5164.310935    -5164.310935    -5164.403347  0.000013 -4.512645  0.000113
   scf:   36    -5164.310935    -5164.310935    -5164.403347  0.000032 -4.512645  0.000066
   scf:   37    -5164.310935    -5164.310935    -5164.403347  0.000015 -4.512645  0.000067
   scf:   38    -5164.310935    -5164.310935    -5164.403347  0.000028 -4.512644  0.000053
   scf:   39    -5164.310935    -5164.310935    -5164.403347  0.000004 -4.512642  0.000035

SCF Convergence by DM+H criterion
max |DM_out - DM_in|         :     0.0000038421
max |H_out - H_in|      (eV) :     0.0000352053
SCF cycle converged after 39 iterations

Using DM_out to compute the final energy and forces
No. of atoms with KB's overlaping orbs in proc 0. Max # of overlaps:      53     271

siesta: E_KS(eV) =            -5164.3109

siesta: Atomic forces (eV/Ang):
     1    0.240700    0.095679    0.044699
     2    0.456157   -0.003155   -0.048658
     3    0.465529   -0.000414    0.240699
     4    0.240435   -0.102260    0.047468
     5   -0.050485    0.749790   -0.039092
     6    0.039325    0.376625    0.131962
     7    0.059103    0.427444   -0.480199
     8    0.036432   -0.377273    0.131205
     9    0.031628   -0.682736   -0.289740
    10    0.006112   -0.432702   -0.294160
    11   -0.108883   -0.604435   -0.504851
    12    0.056801   -0.430285    0.439277
    13   -0.104220    0.604724   -0.504020
    14   -0.061127    0.059955    0.829469
    15    0.035937    0.681939   -0.290188
    16    0.031918   -0.493964   -0.250721
    17   -0.054539   -0.749077   -0.042544
    18    0.034295    0.498304   -0.250351
    19    0.057598   -0.425396   -0.478734
    20   -0.062958   -0.062576    0.829552
    21   -0.046285   -0.339693    0.545106
    22    0.008489    0.434909   -0.294596
    23   -0.045393    0.339088    0.546012
    24    0.058145    0.428738    0.441029
    25   -0.021083   -0.157801   -0.261736
    26   -0.010568   -0.113922   -0.102336
    27   -0.048583   -0.082651   -0.181921
    28    0.008146   -0.145783    0.089361
    29   -0.047881    0.083421   -0.181403
    30    0.005465   -0.236777    0.253551
    31   -0.019424    0.158334   -0.260599
    32    0.006297    0.236195    0.254095
    33   -0.000278   -0.155459    0.179644
    34   -0.007913    0.114115   -0.101648
    35    0.000229    0.155322    0.180685
    36    0.010339    0.145191    0.089801
    37   -1.202802    0.004943   -0.397053
----------------------------------------
   Tot   -0.003341   -0.001643    0.019065
----------------------------------------
   Max    1.202802
   Res    0.325532    sqrt( Sum f_i^2 / 3N )
----------------------------------------
   Max    1.202802    constrained

Stress tensor Voigt[x,y,z,yz,xz,xy] (kbar):        0.05       -8.51      -15.46        0.01       -0.73       -0.02
(Free)E + p*V (eV/cell)    -5154.1310
Target enthalpy (eV/cell)    -5164.4033

mulliken: Atomic and Orbital Populations:

Species: N                   
Atom  Qatom  Qorb
               2s      2s      2py     2pz     2px     2py     2pz     2px     
               3Pdxy   3Pdyz   3Pdz2   3Pdxz   3Pdx2-y2
   1  5.088   0.846   0.509   0.778   0.578   1.276   0.428   0.491   0.069
              0.020   0.043   0.021   0.023   0.007
   2  5.070   0.804   0.536   0.574   0.740   1.268   0.496   0.456   0.081
              0.024   0.044   0.015   0.017   0.014
   3  5.049   0.770   0.556   0.568   0.681   1.270   0.505   0.501   0.079
              0.025   0.046   0.014   0.019   0.014
   4  5.088   0.845   0.509   0.778   0.578   1.276   0.428   0.491   0.068
              0.020   0.043   0.021   0.023   0.007

Species: C                   
Atom  Qatom  Qorb
               2s      2s      2py     2pz     2px     2py     2pz     2px     
               3Pdxy   3Pdyz   3Pdz2   3Pdxz   3Pdx2-y2
   5  3.982   0.311   0.606   0.587   0.653   0.578   0.362   0.296   0.338
              0.049   0.064   0.057   0.054   0.027
   6  3.986   0.303   0.609   0.663   0.587   0.583   0.288   0.366   0.337
              0.056   0.064   0.057   0.046   0.028
   7  3.984   0.306   0.606   0.588   0.660   0.577   0.362   0.294   0.340
              0.048   0.065   0.056   0.055   0.026
   8  3.985   0.303   0.608   0.662   0.587   0.583   0.288   0.366   0.337
              0.056   0.065   0.057   0.046   0.028
   9  3.799   0.106   0.719   0.369   0.345   0.650   0.584   0.600   0.290
              0.029   0.047   0.023   0.025   0.013
  10  3.799   0.162   0.679   0.301   0.378   0.680   0.623   0.574   0.264
              0.020   0.046   0.029   0.031   0.010
  11  3.794   0.164   0.677   0.376   0.311   0.669   0.575   0.615   0.269
              0.033   0.047   0.024   0.019   0.016
  12  3.796   0.162   0.680   0.301   0.377   0.678   0.623   0.574   0.264
              0.020   0.046   0.029   0.032   0.010
  13  3.794   0.164   0.677   0.374   0.312   0.669   0.576   0.614   0.269
              0.032   0.047   0.024   0.019   0.016
  14  3.798   0.106   0.720   0.370   0.339   0.652   0.581   0.609   0.284
              0.028   0.047   0.023   0.028   0.011
  15  3.799   0.106   0.719   0.367   0.347   0.650   0.584   0.599   0.290
              0.028   0.047   0.023   0.025   0.013
  16  3.988   0.309   0.605   0.658   0.594   0.586   0.288   0.364   0.334
              0.055   0.064   0.057   0.048   0.026
  17  3.982   0.311   0.606   0.587   0.653   0.578   0.362   0.296   0.338
              0.049   0.064   0.057   0.054   0.027
  18  3.989   0.309   0.605   0.658   0.593   0.586   0.287   0.364   0.334
              0.055   0.064   0.057   0.048   0.026
  19  3.984   0.306   0.606   0.588   0.660   0.577   0.362   0.294   0.340
              0.048   0.065   0.056   0.056   0.026
  20  3.797   0.106   0.720   0.371   0.338   0.652   0.580   0.610   0.285
              0.028   0.047   0.023   0.028   0.012
  21  3.793   0.164   0.677   0.379   0.301   0.674   0.572   0.625   0.264
              0.032   0.046   0.024   0.020   0.015
  22  3.799   0.162   0.679   0.300   0.379   0.680   0.624   0.573   0.264
              0.020   0.046   0.029   0.031   0.010
  23  3.793   0.164   0.677   0.380   0.300   0.674   0.571   0.626   0.264
              0.032   0.046   0.024   0.020   0.015
  24  3.796   0.162   0.680   0.303   0.376   0.678   0.621   0.575   0.264
              0.020   0.046   0.029   0.032   0.010

Species: H                   
Atom  Qatom  Qorb
               1s      1s      2Ppy    2Ppz    2Ppx    
  25  1.235   0.805   0.326   0.032   0.034   0.037
  26  1.249   0.811   0.326   0.042   0.032   0.039
  27  1.248   0.811   0.326   0.032   0.041   0.039
  28  1.249   0.810   0.326   0.041   0.032   0.039
  29  1.248   0.811   0.326   0.032   0.040   0.039
  30  1.235   0.805   0.327   0.032   0.034   0.037
  31  1.235   0.806   0.326   0.032   0.034   0.037
  32  1.235   0.805   0.327   0.032   0.034   0.037
  33  1.249   0.812   0.326   0.031   0.041   0.039
  34  1.249   0.810   0.326   0.042   0.032   0.039
  35  1.249   0.812   0.326   0.031   0.041   0.039
  36  1.249   0.811   0.326   0.041   0.032   0.039

[...]
  20  3.802   0.124   0.716   0.359   0.342   0.665   0.587   0.600   0.276
              0.027   0.046   0.022   0.027   0.011
  21  3.797   0.176   0.677   0.366   0.309   0.687   0.578   0.614   0.254
              0.031   0.047   0.024   0.019   0.015
  22  3.798   0.178   0.677   0.301   0.378   0.687   0.618   0.569   0.255
              0.019   0.046   0.029   0.031   0.010
  23  3.797   0.176   0.677   0.367   0.308   0.687   0.577   0.615   0.254
              0.031   0.047   0.024   0.019   0.015
  24  3.799   0.176   0.677   0.301   0.378   0.686   0.619   0.569   0.257
              0.020   0.046   0.029   0.031   0.010

Species: H                   
Atom  Qatom  Qorb
               1s      1s      2Ppy    2Ppz    2Ppx    
  25  1.228   0.797   0.328   0.032   0.034   0.037
  26  1.243   0.805   0.327   0.041   0.032   0.039
  27  1.241   0.803   0.328   0.032   0.040   0.038
  28  1.244   0.805   0.327   0.041   0.031   0.039
  29  1.242   0.803   0.328   0.032   0.040   0.038
  30  1.229   0.798   0.328   0.032   0.033   0.037
  31  1.228   0.797   0.328   0.032   0.034   0.037
  32  1.229   0.798   0.328   0.032   0.033   0.037
  33  1.245   0.807   0.327   0.032   0.040   0.039
  34  1.243   0.805   0.327   0.041   0.031   0.039
  35  1.245   0.806   0.327   0.032   0.040   0.039
  36  1.244   0.805   0.327   0.041   0.031   0.039

Species: Fe2                 
Atom  Qatom  Qorb
               4s      4s      3dxy    3dyz    3dz2    3dxz    3dx2-y2 3dxy    
               3dyz    3dz2    3dxz    3dx2-y2 4Ppy    4Ppz    4Ppx    
  37  7.309   0.711   0.008   1.259   1.936   0.894   1.203   1.227  -0.053
             -0.062  -0.042  -0.050  -0.040   0.114   0.118   0.085

mulliken: Qtot =      120.000

cgvc: Finished line minimization    8.  Mean atomic displacement =    0.0127

                     ====================================
                        Begin CG opt. move =     19
                     ====================================

outcoor: Atomic coordinates (fractional):                   
    0.51669672    0.34526417    0.49816150   1       1  N
    0.49679055    0.50016213    0.34648746   1       2  N
    0.51409984    0.49974459    0.65139793   1       3  N
    0.51754501    0.65457147    0.49857626   1       4  N
    0.51401585    0.27477692    0.41006870   2       5  C
    0.48811061    0.41222767    0.27671764   2       6  C
    0.52421041    0.27465964    0.58560653   2       7  C
    0.48872674    0.58832314    0.27693232   2       8  C
    0.49843782    0.30708023    0.30652099   2       9  C
    0.52259926    0.16680201    0.44300147   2      10  C
    0.47152334    0.44626845    0.16968542   2      11  C
    0.52890612    0.16643215    0.55150470   2      12  C
    0.47191243    0.55465496    0.16981557   2      13  C
    0.52049764    0.30659044    0.69044739   2      14  C
    0.49972960    0.69332776    0.30700026   2      15  C
    0.51297990    0.41174129    0.72153172   2      16  C
    0.51538739    0.72527680    0.41064930   2      17  C
    0.51332412    0.58757824    0.72176256   2      18  C
    0.52531177    0.72492738    0.58620103   2      19  C
    0.52132357    0.69276991    0.69095847   2      20  C
    0.50719356    0.44546032    0.82971090   2      21  C
    0.52454237    0.83312820    0.44385393   2      22  C
    0.50739344    0.55359436    0.82985264   2      23  C
    0.53066378    0.83320141    0.55236916   2      24  C
    0.49170924    0.24663328    0.24489081   3      25  H
    0.52123402    0.09874541    0.38939543   3      26  H
    0.46245615    0.39179859    0.10298844   3      27  H
    0.53335520    0.09828316    0.60480054   3      28  H
    0.46323375    0.60934890    0.10325599   3      29  H
    0.52103680    0.24585533    0.75219231   3      30  H
    0.49344201    0.75395811    0.24549877   3      31  H
    0.52208457    0.75334122    0.75285977   3      32  H
    0.50504842    0.39062930    0.89673566   3      33  H
    0.52369552    0.90133249    0.39041803   3      34  H
    0.50545260    0.60824800    0.89702873   3      35  H
    0.53543633    0.90118408    0.60585920   3      36  H
    0.51246599    0.49993436    0.49886667   4      37  Fe2

superc: Internal auxiliary supercell:     1 x     3 x     3  =       9
superc: Number of atoms, orbitals, and projectors:    333   3483   4599

outcell: Unit cell vectors (Ang):
       12.731213    0.000000    0.000000
        0.000000   12.731213    0.000000
        0.000000    0.000000   12.731213

outcell: Cell vector modules (Ang)   :   12.731213   12.731213   12.731213
outcell: Cell angles (23,13,12) (deg):     90.0000     90.0000     90.0000
outcell: Cell volume (Ang**3)        :   2063.5230
<dSpData1D:S at geom step 19
  <sparsity:sparsity for geom step 19
    nrows_g=387 nrows=387 sparsity=1.0887 nnzs=163057, refcount: 7>
  <dData1D:(new from dSpData1D) n=163057, refcount: 1>
refcount: 1>
new_DM -- step:    20
Re-using DM from previous geometries...
Number of DMs in history: 1
 DM extrapolation coefficients: 
1   1.00000
New DM after history re-use:
<dSpData2D:SpM extrapolated using coords
  <sparsity:sparsity for geom step 19
    nrows_g=387 nrows=387 sparsity=1.0887 nnzs=163057, refcount: 9>
  <dData2D:(temp array for extrapolation) n=163057 m=1, refcount: 1>
refcount: 1>
No. of atoms with KB's overlaping orbs in proc 0. Max # of overlaps:      53     271

InitMesh: MESH = 150 x 150 x 150 = 3375000
InitMesh: Mesh cutoff (required, used) =   370.000   383.658 Ry
New grid distribution [1]: sub = 2

        iscf     Eharris(eV)        E_KS(eV)     FreeEng(eV)     dDmax    Ef(eV) dHmax(eV)
   scf:    1    -5164.654487    -5164.631265    -5164.724018  0.137252 -4.611600  0.568440
   scf:    2    -5159.819668    -5163.099343    -5163.168290  0.553859 -4.303652  8.087556
   scf:    3    -5164.770715    -5164.650030    -5164.744605  0.435931 -4.594895  0.206306
   scf:    4    -5164.651209    -5164.650679    -5164.745197  0.006985 -4.596327  0.149825
   scf:    5    -5164.621624    -5164.642691    -5164.736309  0.100875 -4.586562  0.374172
   scf:    6    -5164.643562    -5164.643129    -5164.736775  0.001838 -4.586677  0.367571
   scf:    7    -5164.653801    -5164.654407    -5164.748633  0.098795 -4.593829  0.020595
   scf:    8    -5164.654425    -5164.654420    -5164.748657  0.002283 -4.593511  0.016180
   scf:    9    -5164.654427    -5164.654428    -5164.748683  0.001681 -4.593043  0.012009
   scf:   10    -5164.654459    -5164.654444    -5164.748694  0.000366 -4.593064  0.007866
   scf:   11    -5164.654492    -5164.654472    -5164.748712  0.002392 -4.593008  0.006452
   scf:   12    -5164.654479    -5164.654476    -5164.748715  0.000577 -4.592942  0.005695
   scf:   13    -5164.654491    -5164.654485    -5164.748726  0.000304 -4.592524  0.003850
   scf:   14    -5164.654489    -5164.654487    -5164.748727  0.000195 -4.592535  0.003248
   scf:   15    -5164.654493    -5164.654490    -5164.748728  0.000212 -4.592586  0.002098
   scf:   16    -5164.654490    -5164.654490    -5164.748728  0.000098 -4.592592  0.001682
   scf:   17    -5164.654490    -5164.654490    -5164.748728  0.000061 -4.592589  0.001277
   scf:   18    -5164.654489    -5164.654489    -5164.748729  0.000235 -4.592594  0.000911
   scf:   19    -5164.654491    -5164.654490    -5164.748729  0.000199 -4.592634  0.000616
   scf:   20    -5164.654490    -5164.654490    -5164.748729  0.000007 -4.592647  0.000665

SCF Convergence by DM+H criterion
max |DM_out - DM_in|         :     0.0000067030
max |H_out - H_in|      (eV) :     0.0006647943
SCF cycle converged after 20 iterations

Using DM_out to compute the final energy and forces
No. of atoms with KB's overlaping orbs in proc 0. Max # of overlaps:      53     271

siesta: E_KS(eV) =            -5164.6545

siesta: Atomic forces (eV/Ang):
     1    0.030217   -0.035375   -0.027973
     2    0.092185    0.000252    0.039376
     3    0.081754    0.000938    0.027606
     4    0.029780    0.033920   -0.027893
     5   -0.028429    0.136744    0.090308
     6   -0.020334    0.047311   -0.115272
     7   -0.027758   -0.022219   -0.042112
     8   -0.021164   -0.049084   -0.116246
     9   -0.061487    0.092839   -0.036777
    10   -0.017362   -0.090797    0.213124
    11    0.045326   -0.034486    0.058354
    12   -0.054773    0.094886   -0.161649
    13    0.045628    0.033733    0.060335
    14   -0.073957    0.136771    0.035225
    15   -0.063248   -0.093237   -0.037940
    16   -0.013701   -0.093804    0.060854
    17   -0.029126   -0.132668    0.086639
    18   -0.013489    0.092394    0.062306
    19   -0.026858    0.021479   -0.040281
    20   -0.074917   -0.137566    0.034824
    21    0.044846   -0.193456   -0.025000
    22   -0.016663    0.090992    0.213238
    23    0.045539    0.193022   -0.024271
    24   -0.054035   -0.091507   -0.161352
    25    0.045885   -0.030377   -0.013742
    26    0.025685    0.078368    0.035586
    27   -0.022381    0.083565    0.001352
    28    0.033695    0.068634   -0.046962
    29   -0.023125   -0.082487   -0.000103
    30    0.041145   -0.017077    0.005881
    31    0.045910    0.029646   -0.011827
    32    0.041520    0.017312    0.005781
    33   -0.000139    0.100056   -0.004014
    34    0.026022   -0.080646    0.035728
    35   -0.000484   -0.099335   -0.004350
    36    0.034306   -0.069832   -0.048315
    37   -0.043658    0.000736   -0.075875
----------------------------------------
   Tot    0.022355   -0.000355    0.044564
----------------------------------------
   Max    0.213238
   Res    0.072417    sqrt( Sum f_i^2 / 3N )
----------------------------------------
   Max    0.213238    constrained

Stress tensor Voigt[x,y,z,yz,xz,xy] (kbar):        0.04        1.98        0.14        0.02        0.00        0.01
(Free)E + p*V (eV/cell)    -5165.6742
Target enthalpy (eV/cell)    -5164.7487

mulliken: Atomic and Orbital Populations:

Species: N                   
Atom  Qatom  Qorb
               2s      2s      2py     2pz     2px     2py     2pz     2px     
               3Pdxy   3Pdyz   3Pdz2   3Pdxz   3Pdx2-y2
   1  5.093   0.852   0.506   0.777   0.588   1.286   0.427   0.480   0.065
              0.019   0.042   0.021   0.023   0.007
   2  5.085   0.834   0.517   0.580   0.766   1.281   0.488   0.438   0.069
              0.023   0.043   0.014   0.018   0.014
   3  5.081   0.829   0.521   0.580   0.749   1.284   0.488   0.450   0.067
              0.023   0.043   0.014   0.019   0.014
   4  5.093   0.852   0.506   0.777   0.588   1.286   0.427   0.480   0.065
              0.019   0.042   0.021   0.023   0.007

Species: C                   
Atom  Qatom  Qorb
               2s      2s      2py     2pz     2px     2py     2pz     2px     
               3Pdxy   3Pdyz   3Pdz2   3Pdxz   3Pdx2-y2
   5  3.984   0.322   0.604   0.578   0.645   0.591   0.369   0.300   0.328
              0.047   0.064   0.057   0.053   0.027
   6  3.985   0.323   0.604   0.649   0.579   0.592   0.295   0.368   0.327
              0.055   0.064   0.056   0.045   0.028
   7  3.986   0.325   0.603   0.578   0.648   0.591   0.368   0.299   0.327
              0.047   0.064   0.056   0.055   0.026
   8  3.985   0.323   0.604   0.649   0.579   0.592   0.295   0.368   0.327
              0.055   0.064   0.056   0.045   0.028
   9  3.802   0.122   0.716   0.357   0.348   0.659   0.588   0.595   0.282
              0.027   0.046   0.023   0.026   0.012
  10  3.798   0.177   0.678   0.299   0.378   0.687   0.620   0.568   0.255
              0.020   0.046   0.029   0.030   0.010
  11  3.799   0.180   0.675   0.371   0.315   0.680   0.575   0.607   0.261
              0.031   0.046   0.024   0.019   0.016
  12  3.798   0.179   0.677   0.298   0.379   0.688   0.620   0.567   0.254
              0.019   0.046   0.029   0.031   0.010
  13  3.799   0.180   0.675   0.369   0.316   0.680   0.576   0.606   0.260
              0.031   0.046   0.024   0.019   0.016
  14  3.802   0.123   0.716   0.354   0.345   0.666   0.591   0.598   0.276
              0.027   0.046   0.022   0.027   0.011
  15  3.802   0.122   0.716   0.356   0.349   0.660   0.589   0.594   0.282
              0.027   0.046   0.023   0.026   0.012
  16  3.985   0.324   0.603   0.648   0.579   0.593   0.296   0.369   0.326
              0.054   0.064   0.056   0.046   0.026
  17  3.984   0.322   0.604   0.578   0.645   0.591   0.369   0.299   0.328
              0.047   0.064   0.057   0.053   0.027
  18  3.985   0.324   0.604   0.649   0.579   0.593   0.296   0.369   0.326
              0.054   0.064   0.056   0.046   0.026
  19  3.986   0.324   0.603   0.578   0.648   0.591   0.368   0.298   0.327
              0.047   0.064   0.056   0.055   0.026
  20  3.802   0.123   0.716   0.355   0.343   0.666   0.590   0.600   0.276
              0.027   0.046   0.022   0.027   0.011
  21  3.798   0.179   0.675   0.369   0.309   0.685   0.577   0.613   0.255
              0.031   0.047   0.024   0.019   0.015
  22  3.798   0.177   0.678   0.298   0.380   0.687   0.621   0.567   0.255
              0.020   0.046   0.029   0.031   0.010
  23  3.798   0.179   0.675   0.370   0.307   0.685   0.576   0.614   0.255
              0.031   0.047   0.024   0.019   0.015
  24  3.798   0.179   0.677   0.300   0.378   0.688   0.619   0.568   0.254
              0.019   0.046   0.029   0.031   0.010

Species: H                   
Atom  Qatom  Qorb
               1s      1s      2Ppy    2Ppz    2Ppx    
  25  1.230   0.798   0.329   0.032   0.034   0.037
  26  1.244   0.805   0.327   0.041   0.031   0.039
  27  1.243   0.804   0.328   0.032   0.040   0.039
  28  1.243   0.805   0.327   0.041   0.031   0.039
  29  1.243   0.804   0.328   0.032   0.040   0.039
  30  1.230   0.798   0.329   0.032   0.033   0.037
  31  1.230   0.799   0.329   0.032   0.034   0.037
  32  1.230   0.798   0.329   0.032   0.033   0.037
  33  1.244   0.806   0.327   0.032   0.040   0.039
  34  1.243   0.805   0.327   0.041   0.031   0.039
  35  1.244   0.805   0.327   0.032   0.040   0.039
  36  1.244   0.805   0.327   0.041   0.031   0.039

Species: Fe2                 
Atom  Qatom  Qorb
               4s      4s      3dxy    3dyz    3dz2    3dxz    3dx2-y2 3dxy    
               3dyz    3dz2    3dxz    3dx2-y2 4Ppy    4Ppz    4Ppx    
  37  7.306   0.710   0.008   1.247   1.936   0.892   1.218   1.226  -0.052
             -0.062  -0.043  -0.050  -0.040   0.115   0.117   0.085

mulliken: Qtot =      120.000

                     ====================================
                        Begin CG opt. move =     20
                     ====================================

outcoor: Atomic coordinates (fractional):                   
    0.51678805    0.34520581    0.49815952   1       1  N
    0.49675425    0.50016266    0.34663280   1       2  N
    0.51406895    0.49974455    0.65132138   1       3  N
    0.51763698    0.65462771    0.49857488   1       4  N
    0.51408403    0.27476638    0.41009105   2       5  C
    0.48808895    0.41225980    0.27680923   2       6  C
    0.52427532    0.27459481    0.58558009   2       7  C
    0.48870485    0.58829106    0.27702356   2       8  C
    0.49839861    0.30709098    0.30654326   2       9  C
    0.52259306    0.16674981    0.44305097   2      10  C
    0.47147992    0.44624731    0.16981100   2      11  C
    0.52889696    0.16640366    0.55148269   2      12  C
    0.47186901    0.55467589    0.16994122   2      13  C
    0.52046023    0.30660376    0.69042736   2      14  C
    0.49969081    0.69331756    0.30702116   2      15  C
    0.51296115    0.41170224    0.72146704   2      16  C
    0.51545598    0.72528765    0.41067152   2      17  C
    0.51330560    0.58761669    0.72169783   2      18  C
    0.52537679    0.72499126    0.58617503   2      19  C
    0.52128597    0.69275676    0.69093805   2      20  C
    0.50713567    0.44541836    0.82960211   2      21  C
    0.52453592    0.83318149    0.44390358   2      22  C
    0.50733549    0.55363717    0.82974398   2      23  C
    0.53065420    0.83323026    0.55234741   2      24  C
    0.49169258    0.24660620    0.24485126   3      25  H
    0.52122547    0.09873294    0.38936307   3      26  H
    0.46252789    0.39174427    0.10308604   3      27  H
    0.53332774    0.09827674    0.60481421   3      28  H
    0.46330600    0.60940305    0.10335441   3      29  H
    0.52104164    0.24586288    0.75221093   3      30  H
    0.49342575    0.75398612    0.24545892   3      31  H
    0.52208929    0.75333308    0.75287819   3      32  H
    0.50507803    0.39061242    0.89658454   3      33  H
    0.52368565    0.90134612    0.39038552   3      34  H
    0.50548227    0.60826431    0.89687797   3      35  H
    0.53540758    0.90119061    0.60587281   3      36  H
    0.51241693    0.49993440    0.49879615   4      37  Fe2

superc: Internal auxiliary supercell:     1 x     3 x     3  =       9
superc: Number of atoms, orbitals, and projectors:    333   3483   4599

outcell: Unit cell vectors (Ang):
       12.731213    0.000000    0.000000
        0.000000   12.731213    0.000000
        0.000000    0.000000   12.731213

outcell: Cell vector modules (Ang)   :   12.731213   12.731213   12.731213
outcell: Cell angles (23,13,12) (deg):     90.0000     90.0000     90.0000
outcell: Cell volume (Ang**3)        :   2063.5230
<dSpData1D:S at geom step 20
  <sparsity:sparsity for geom step 20
    nrows_g=387 nrows=387 sparsity=1.0887 nnzs=163057, refcount: 7>
  <dData1D:(new from dSpData1D) n=163057, refcount: 1>
refcount: 1>
new_DM -- step:    21
Re-using DM from previous geometries...
Number of DMs in history: 1
 DM extrapolation coefficients: 
1   1.00000
New DM after history re-use:
<dSpData2D:SpM extrapolated using coords
  <sparsity:sparsity for geom step 20
    nrows_g=387 nrows=387 sparsity=1.0887 nnzs=163057, refcount: 9>
  <dData2D:(temp array for extrapolation) n=163057 m=1, refcount: 1>
refcount: 1>
No. of atoms with KB's overlaping orbs in proc 0. Max # of overlaps:      53     271

InitMesh: MESH = 150 x 150 x 150 = 3375000
InitMesh: Mesh cutoff (required, used) =   370.000   383.658 Ry
New grid distribution [1]: sub = 2

        iscf     Eharris(eV)        E_KS(eV)     FreeEng(eV)     dDmax    Ef(eV) dHmax(eV)
   scf:    1    -5164.640511    -5164.654091    -5164.748282  0.024129 -4.588550  0.103455
   scf:    2    -5164.269295    -5164.531388    -5164.618312  0.280960 -4.637679  1.914539
   scf:    3    -5164.652401    -5164.654727    -5164.748901  0.265560 -4.590930  0.017968
   scf:    4    -5164.654635    -5164.654756    -5164.748995  0.011220 -4.591061  0.018631
   scf:    5    -5164.650090    -5164.653030    -5164.747358  0.029699 -4.589050  0.156653
   scf:    6    -5164.655014    -5164.654816    -5164.749045  0.032762 -4.591928  0.002759
   scf:    7    -5164.654814    -5164.654815    -5164.749045  0.000083 -4.591918  0.002645
   scf:    8    -5164.654815    -5164.654815    -5164.749046  0.000158 -4.591915  0.001948
   scf:    9    -5164.654819    -5164.654817    -5164.749046  0.000186 -4.591941  0.001303
   scf:   10    -5164.654817    -5164.654817    -5164.749046  0.000195 -4.591953  0.001187
   scf:   11    -5164.654814    -5164.654816    -5164.749047  0.000372 -4.591987  0.000990
   scf:   12    -5164.654816    -5164.654816    -5164.749047  0.000037 -4.592029  0.001023
   scf:   13    -5164.654817    -5164.654816    -5164.749047  0.000041 -4.592038  0.001020
   scf:   14    -5164.654818    -5164.654817    -5164.749047  0.000054 -4.592042  0.000880
   scf:   15    -5164.654817    -5164.654817    -5164.749047  0.000013 -4.592042  0.000640
   scf:   16    -5164.654817    -5164.654817    -5164.749047  0.000043 -4.592042  0.000455
   scf:   17    -5164.654818    -5164.654817    -5164.749047  0.000071 -4.592042  0.000300
   scf:   18    -5164.654818    -5164.654818    -5164.749047  0.000037 -4.592039  0.000211
   scf:   19    -5164.654818    -5164.654818    -5164.749047  0.000030 -4.592032  0.000189
