Siesta Version  : 5.0.0-alpha-10-g89f2f52d8-dirty
Architecture    : unknown
Compiler version: GNU Fortran (Ubuntu 9.3.0-17ubuntu1~20.04) 9.3.0
Compiler flags  : gfortran -O2 -fPIC -ftree-vectorize
PP flags        : -DFC_HAVE_ABORT -DSIESTA__DIAG_2STAGE -DSIESTA__MRRR
Libraries       : libsiestaLAPACK.a libsiestaBLAS.a
Directory       : /home/runner/work/ip/ip/ip
SERIAL version

* Running in serial mode
>> Start of run:  28-JUN-2021  13:29:10

                           ***********************       
                           *  WELCOME TO SIESTA  *       
                           ***********************       

reinit: Reading from standard input
reinit: Dumped input in INPUT_TMP.45272
************************** Dump of input data file ****************************
SystemName          iron porphyrin
SystemLabel         ip
# Species and atoms
 NumberOfAtoms          37
 NumberOfSpecies           4
 %block ChemicalSpeciesLabel
    1       7      N
    2       6      C
    3       1      H
    4      26      Fe2
 %endblock ChemicalSpeciesLabel
 # Basis
 PAO.BasisType         split
 PAO.BasisSize         DZP
 PAO.EnergyShift       50 meV
 LatticeConstant  1.000000  Ang
 AtomicCoordinatesFormat     Fractional
 %block LatticeVectors
   12.7312126160    0.0000000000    0.0000000000
    0.0000000000   12.7312126160    0.0000000000
    0.0000000000    0.0000000000   12.7312126160
 %endblock LatticeVectors
 %block AtomicCoordinatesAndAtomicSpecies
    0.5183603760    0.3417397440    0.4985649590    1
    0.4923353790    0.5001747610    0.3501061800    1
    0.5097091790    0.4997498390    0.6464495660    1
    0.5192401410    0.6580858830    0.4989733990    1
    0.5145021680    0.2750532630    0.4113305210    2
    0.4856400190    0.4133637250    0.2822375600    2
    0.5238830450    0.2749275570    0.5832529070    2
    0.4862518910    0.5871979000    0.2824519870    2
    0.4972909090    0.3081341390    0.3103016610    2
    0.5222147110    0.1662568750    0.4435646830    2
    0.4720702170    0.4462019210    0.1763552730    2
    0.5279674530    0.1661633850    0.5506197210    2
    0.4724582430    0.5547202830    0.1764895620    2
    0.5194026830    0.3082684580    0.6873050330    2
    0.4985798600    0.6922837500    0.3107760850    2
    0.5106611850    0.4117496010    0.7156228420    2
    0.5158821940    0.7250119450    0.4119015630    2
    0.5110036730    0.5875678660    0.7158522010    2
    0.5249913330    0.7246545550    0.5838388200    2
    0.5202195640    0.6910780670    0.6878022550    2
    0.5069584850    0.4460039730    0.8232787250    2
    0.5241563920    0.8336834910    0.4444208740    2
    0.5071579810    0.5530440810    0.8234193330    2
    0.5297175050    0.8334753510    0.5514868500    2
    0.4921680690    0.2497689430    0.2485416230    3
    0.5214449170    0.1000754540    0.3905665870    3
    0.4651415940    0.3939154740    0.1099680360    3
    0.5328326820    0.0999999940    0.6033821700    3
    0.4659050410    0.6072203520    0.1102335450    3
    0.5216633080    0.2496581970    0.7489330770    3
    0.4938788120    0.7508257030    0.2491511700    3
    0.5226992960    0.7495257260    0.7495763900    3
    0.5058494210    0.3933852610    0.8897515540    3
    0.5238366720    0.8999999760    0.3915885090    3
    0.5062460900    0.6054899690    0.8900319340    3
    0.5348584060    0.8994753360    0.6044284110    3
    0.5248350500    0.4999022190    0.4999128280    4
 %endblock AtomicCoordinatesAndAtomicSpecies
 %block kgrid_Monkhorst_Pack
   1   0   0    0.000000
   0   2   0    0.000000
   0   0   2    0.000000
 %endblock kgrid_Monkhorst_Pack
 SpinPolarized         .false.        # Logical parameters are: yes or no
 xc.functional         GGA            # Exchange-correlation functional
 xc.authors            PBE            # Exchange-correlation version
 SolutionMethod        diagon         # OrderN or Diagon
 MaxSCFIterations      300            # Maximum number of SCF iter
 DM.MixingWeight       0.02          # New DM amount for next SCF cycle
 DM.Tolerance          1.d-5          # Tolerance in maximum difference
 MeshCutoff            370.0 Ry       # Mesh cutoff. real space mesh
 DM.NumberPulay         4
 ElectronicTemperature  25 meV        # Temp. for Fermi smearing
 # MD options
 MD.TypeOfRun           cg            # Type of dynamics:
 MD.NumCGsteps          50           # Number of CG steps for
 MD.MaxCGDispl          0.1 Ang       # Maximum atomic displacement
 MD.MaxForceTol         0.04 eV/Ang   # Tolerance in the maximum
 # Output options
 WriteCoorInitial      .true.
 WriteEigenvalues      .true.
 # Options for saving/reading
 DM.UseSaveDM          .true.         # to use continuation files
 UseSaveData           .true.
	# -- SAVING WAVE/BAND/EIGEN/KPOINTS/ANIMATION INFORMATION --
WriteKbands            	T
WriteBands           	T
WriteCoorXmol 		T
WriteCoorStep       	T
WriteKpoints        	T
WriteCoorCerius		T
WriteHS             	T
WriteForces           	T
WriteMullikenPop	1
SaveHS			T
XML.Write              	T
BandLinesScale      ReciprocalLatticeVectors
%block BandLines
1  0.0000000000 0.0000000000 0.0000000000  \Gamma
10 0.0000000000 0.5000000000 0.0000000000  X
10 0.0000000000 0.0000000000 0.5000000000  Y
10 0.0000000000 0.0000000000 0.0000000000  \Gamma
10 0.5000000000 0.0000000000 0.0000000000  Z
10 0.5000000000 0.5000000000 0.5000000000  R
10 0.0000000000 0.0000000000 0.0000000000  \Gamma
10 0.5000000000 0.0000000000 0.5000000000  T
10 0.5000000000 0.5000000000 0.0000000000  U
10 0.0000000000 0.0000000000 0.0000000000  \Gamma
10 0.0000000000 0.5000000000 0.5000000000  V
10 0.0000000000 0.0000000000 0.0000000000  \Gamma
%endblock BandLines
************************** End of input data file *****************************

reinit: -----------------------------------------------------------------------
reinit: System Name: iron porphyrin
reinit: -----------------------------------------------------------------------
reinit: System Label: ip
reinit: -----------------------------------------------------------------------

initatom: Reading input for the pseudopotentials and atomic orbitals ----------
Species number:   1 Atomic number:    7 Label: N
Species number:   2 Atomic number:    6 Label: C
Species number:   3 Atomic number:    1 Label: H
Species number:   4 Atomic number:   26 Label: Fe2

Ground state valence configuration:   2s02  2p03
Reading pseudopotential information in formatted form from N.psf

Pseudopotential generated from a relativistic atomic calculation

Valence configuration for pseudopotential generation:
2s( 2.00) rc: 1.29
2p( 3.00) rc: 1.42
3d( 0.00) rc: 1.74
4f( 0.00) rc: 2.98
Ground state valence configuration:   2s02  2p02
Reading pseudopotential information in formatted form from C.psf

Pseudopotential generated from a relativistic atomic calculation

Valence configuration for pseudopotential generation:
2s( 2.00) rc: 1.84
2p( 2.00) rc: 1.62
3d( 0.00) rc: 1.64
4f( 0.00) rc: 1.64
Ground state valence configuration:   1s01
Reading pseudopotential information in formatted form from H.psf

Pseudopotential generated from a relativistic atomic calculation

Valence configuration for pseudopotential generation:
1s( 1.00) rc: 1.31
2p( 0.00) rc: 1.13
3d( 0.00) rc: 1.09
4f( 0.00) rc: 1.14
Ground state valence configuration:   4s02  3d06
Reading pseudopotential information in formatted form from Fe2.psf

Pseudopotential generated from a relativistic atomic calculation

Valence configuration for pseudopotential generation:
4s( 0.00) rc: 2.00
4p( 0.00) rc: 2.00
3d( 6.00) rc: 2.00
4f( 0.00) rc: 2.00
For N, standard SIESTA heuristics set lmxkb to 3
 (one more than the basis l, including polarization orbitals).
Use PS.lmax or PS.KBprojectors blocks to override.
For C, standard SIESTA heuristics set lmxkb to 3
 (one more than the basis l, including polarization orbitals).
Use PS.lmax or PS.KBprojectors blocks to override.
For H, standard SIESTA heuristics set lmxkb to 2
 (one more than the basis l, including polarization orbitals).
Use PS.lmax or PS.KBprojectors blocks to override.
For Fe2, standard SIESTA heuristics set lmxkb to 3
 (one more than the basis l, including polarization orbitals).
Use PS.lmax or PS.KBprojectors blocks to override.
Fe2: nkbl increased for l=1 due to the presence of a polarization orbital

<basis_specs>
===============================================================================
N                    Z=   7    Mass=  14.010        Charge= 0.17977+309
Lmxo=1 Lmxkb= 3    BasisType=split      Semic=F
L=0  Nsemic=0  Cnfigmx=2
          i=1  nzeta=2  polorb=0  (2s)
            splnorm:   0.15000    
               vcte:    0.0000    
               rinn:    0.0000    
               qcoe:    0.0000    
               qyuk:    0.0000    
               qwid:   0.10000E-01
                rcs:    0.0000      0.0000    
            lambdas:    1.0000      1.0000    
L=1  Nsemic=0  Cnfigmx=2
          i=1  nzeta=2  polorb=1  (2p)
            splnorm:   0.15000    
               vcte:    0.0000    
               rinn:    0.0000    
               qcoe:    0.0000    
               qyuk:    0.0000    
               qwid:   0.10000E-01
                rcs:    0.0000      0.0000    
            lambdas:    1.0000      1.0000    
-------------------------------------------------------------------------------
L=0  Nkbl=1  erefs: 0.17977+309
L=1  Nkbl=1  erefs: 0.17977+309
L=2  Nkbl=1  erefs: 0.17977+309
L=3  Nkbl=1  erefs: 0.17977+309
===============================================================================
</basis_specs>

atom: Called for N                     (Z =   7)

read_vps: Pseudopotential generation method:
read_vps: ATM4.1.0  Troullier-Martins                       
Valence charge for ps generation:    5.00000

read_vps: Pseudopotential includes a core correction:
read_vps: Pseudo-core for xc-correction

xc_check: Exchange-correlation functional:
xc_check: GGA Perdew, Burke & Ernzerhof 1996
V l=0 = -2*Zval/r beyond r=  1.3893
V l=1 = -2*Zval/r beyond r=  1.4068
V l=2 = -2*Zval/r beyond r=  1.7184
V l=3 = -2*Zval/r beyond r=  2.9051
All V_l potentials equal beyond r=  2.9051
This should be close to max(r_c) in ps generation
All pots = -2*Zval/r beyond r=  2.9051

VLOCAL1: 99.0% of the norm of Vloc inside      5.143 Ry
VLOCAL1: 99.9% of the norm of Vloc inside     11.722 Ry
atom: Maximum radius for 4*pi*r*r*local-pseudopot. charge    3.46076
atom: Maximum radius for r*vlocal+2*Zval:    3.05407

KBgen: Kleinman-Bylander projectors: 
GHOST: No ghost state for L =  0
   l= 0   rc=  3.016124   el= -1.364978   Ekb= -2.808808   kbcos= -0.742527
GHOST: No ghost state for L =  1
   l= 1   rc=  2.978652   el= -0.521172   Ekb= -8.658168   kbcos= -0.584939
GHOST: No ghost state for L =  2
   l= 2   rc=  3.333369   el=  0.001991   Ekb= -1.641438   kbcos= -0.029991
GHOST: No ghost state for L =  3
   l= 3   rc=  3.460758   el=  0.003093   Ekb= -0.279848   kbcos= -0.014018

KBgen: Total number of  Kleinman-Bylander projectors:   16
atom: -------------------------------------------------------------------------

atom: SANKEY-TYPE ORBITALS:
atom: Selected multiple-zeta basis: split     

SPLIT: Orbitals with angular momentum L= 0

SPLIT: Basis orbitals for state 2s

SPLIT: PAO cut-off radius determined from an
SPLIT: energy shift=  0.003675 Ry

   izeta = 1
                 lambda =    1.000000
                     rc =    4.388595
                 energy =   -1.361280
                kinetic =    1.182830
    potential(screened) =   -2.544110
       potential(ionic) =   -8.052211

   izeta = 2
                 rmatch =    2.941647
              splitnorm =    0.150000
                 energy =   -1.182724
                kinetic =    1.808505
    potential(screened) =   -2.991229
       potential(ionic) =   -8.894182

SPLIT: Orbitals with angular momentum L= 1

SPLIT: Basis orbitals for state 2p

SPLIT: PAO cut-off radius determined from an
SPLIT: energy shift=  0.003675 Ry

   izeta = 1
                 lambda =    1.000000
                     rc =    5.496027
                 energy =   -0.517594
                kinetic =    3.415465
    potential(screened) =   -3.933060
       potential(ionic) =   -9.235705

   izeta = 2
                 rmatch =    3.092486
              splitnorm =    0.150000
                 energy =   -0.339289
                kinetic =    5.055748
    potential(screened) =   -5.395036
       potential(ionic) =  -11.309880

POLgen: Perturbative polarization orbital with L=  2

POLgen: Polarization orbital for state 2p

   izeta = 1
                     rc =    5.496027
                 energy =    1.497544
                kinetic =    3.057213
    potential(screened) =   -1.559669
       potential(ionic) =   -5.761067
atom: Total number of Sankey-type orbitals: 13

atm_pop: Valence configuration (for local Pseudopot. screening):
 2s( 2.00)                                                            
 2p( 3.00)                                                            
Vna: chval, zval:    5.00000   5.00000

Vna:  Cut-off radius for the neutral-atom potential:   5.496027
comcore: Pseudo-core radius Rcore=  1.554824

atom: _________________________________________________________________________

<basis_specs>
===============================================================================
C                    Z=   6    Mass=  12.010        Charge= 0.17977+309
Lmxo=1 Lmxkb= 3    BasisType=split      Semic=F
L=0  Nsemic=0  Cnfigmx=2
          i=1  nzeta=2  polorb=0  (2s)
            splnorm:   0.15000    
               vcte:    0.0000    
               rinn:    0.0000    
               qcoe:    0.0000    
               qyuk:    0.0000    
               qwid:   0.10000E-01
                rcs:    0.0000      0.0000    
            lambdas:    1.0000      1.0000    
L=1  Nsemic=0  Cnfigmx=2
          i=1  nzeta=2  polorb=1  (2p)
            splnorm:   0.15000    
               vcte:    0.0000    
               rinn:    0.0000    
               qcoe:    0.0000    
               qyuk:    0.0000    
               qwid:   0.10000E-01
                rcs:    0.0000      0.0000    
            lambdas:    1.0000      1.0000    
-------------------------------------------------------------------------------
L=0  Nkbl=1  erefs: 0.17977+309
L=1  Nkbl=1  erefs: 0.17977+309
L=2  Nkbl=1  erefs: 0.17977+309
L=3  Nkbl=1  erefs: 0.17977+309
===============================================================================
</basis_specs>

atom: Called for C                     (Z =   6)

read_vps: Pseudopotential generation method:
read_vps: ATM3.3    Troullier-Martins                       
Valence charge for ps generation:    4.00000

xc_check: Exchange-correlation functional:
xc_check: GGA Perdew, Burke & Ernzerhof 1996
V l=0 = -2*Zval/r beyond r=  1.8140
V l=1 = -2*Zval/r beyond r=  1.7692
V l=2 = -2*Zval/r beyond r=  1.7692
V l=3 = -2*Zval/r beyond r=  1.7692
All V_l potentials equal beyond r=  1.8140
This should be close to max(r_c) in ps generation
All pots = -2*Zval/r beyond r=  1.8140

VLOCAL1: 99.0% of the norm of Vloc inside     13.192 Ry
VLOCAL1: 99.9% of the norm of Vloc inside     30.065 Ry
atom: Maximum radius for 4*pi*r*r*local-pseudopot. charge    2.16095
atom: Maximum radius for r*vlocal+2*Zval:    1.88329

KBgen: Kleinman-Bylander projectors: 
GHOST: No ghost state for L =  0
   l= 0   rc=  2.004780   el= -1.010207   Ekb=  2.995585   kbcos=  0.335322
GHOST: No ghost state for L =  1
   l= 1   rc=  1.979871   el= -0.388556   Ekb= -4.412411   kbcos= -0.405487
GHOST: No ghost state for L =  2
   l= 2   rc=  2.188140   el=  0.001971   Ekb= -1.183708   kbcos= -0.012464
GHOST: No ghost state for L =  3
   l= 3   rc=  2.479542   el=  0.003065   Ekb= -0.554381   kbcos= -0.001878

KBgen: Total number of  Kleinman-Bylander projectors:   16
atom: -------------------------------------------------------------------------

atom: SANKEY-TYPE ORBITALS:
atom: Selected multiple-zeta basis: split     

SPLIT: Orbitals with angular momentum L= 0

SPLIT: Basis orbitals for state 2s

SPLIT: PAO cut-off radius determined from an
SPLIT: energy shift=  0.003675 Ry

   izeta = 1
                 lambda =    1.000000
                     rc =    4.993604
                 energy =   -1.006386
                kinetic =    0.821009
    potential(screened) =   -1.827396
       potential(ionic) =   -5.411899

   izeta = 2
                 rmatch =    3.475094
              splitnorm =    0.150000
                 energy =   -0.870447
                kinetic =    1.260244
    potential(screened) =   -2.130691
       potential(ionic) =   -5.977467

SPLIT: Orbitals with angular momentum L= 1

SPLIT: Basis orbitals for state 2p

SPLIT: PAO cut-off radius determined from an
SPLIT: energy shift=  0.003675 Ry

   izeta = 1
                 lambda =    1.000000
                     rc =    6.253707
                 energy =   -0.384900
                kinetic =    2.331510
    potential(screened) =   -2.716409
       potential(ionic) =   -6.135594

   izeta = 2
                 rmatch =    3.745781
              splitnorm =    0.150000
                 energy =   -0.256413
                kinetic =    3.469048
    potential(screened) =   -3.725462
       potential(ionic) =   -7.535472

POLgen: Perturbative polarization orbital with L=  2

POLgen: Polarization orbital for state 2p

   izeta = 1
                     rc =    6.253707
                 energy =    1.024133
                kinetic =    2.152420
    potential(screened) =   -1.128287
       potential(ionic) =   -3.877835
atom: Total number of Sankey-type orbitals: 13

atm_pop: Valence configuration (for local Pseudopot. screening):
 2s( 2.00)                                                            
 2p( 2.00)                                                            
Vna: chval, zval:    4.00000   4.00000

Vna:  Cut-off radius for the neutral-atom potential:   6.253707

atom: _________________________________________________________________________

<basis_specs>
===============================================================================
H                    Z=   1    Mass=  1.0100        Charge= 0.17977+309
Lmxo=0 Lmxkb= 2    BasisType=split      Semic=F
L=0  Nsemic=0  Cnfigmx=1
          i=1  nzeta=2  polorb=1  (1s)
            splnorm:   0.15000    
               vcte:    0.0000    
               rinn:    0.0000    
               qcoe:    0.0000    
               qyuk:    0.0000    
               qwid:   0.10000E-01
                rcs:    0.0000      0.0000    
            lambdas:    1.0000      1.0000    
-------------------------------------------------------------------------------
L=0  Nkbl=1  erefs: 0.17977+309
L=1  Nkbl=1  erefs: 0.17977+309
L=2  Nkbl=1  erefs: 0.17977+309
===============================================================================
</basis_specs>

atom: Called for H                     (Z =   1)

read_vps: Pseudopotential generation method:
read_vps: ATM4.1.0  Troullier-Martins                       
Valence charge for ps generation:    1.00000

xc_check: Exchange-correlation functional:
xc_check: GGA Perdew, Burke & Ernzerhof 1996
V l=0 = -2*Zval/r beyond r=  1.2977
V l=1 = -2*Zval/r beyond r=  1.2656
V l=2 = -2*Zval/r beyond r=  1.2656
All V_l potentials equal beyond r=  1.2977
This should be close to max(r_c) in ps generation
All pots = -2*Zval/r beyond r=  1.2977

VLOCAL1: 99.0% of the norm of Vloc inside     25.776 Ry
VLOCAL1: 99.9% of the norm of Vloc inside     58.745 Ry
atom: Maximum radius for 4*pi*r*r*local-pseudopot. charge    1.52711
atom: Maximum radius for r*vlocal+2*Zval:    1.28155

KBgen: Kleinman-Bylander projectors: 
GHOST: No ghost state for L =  0
   l= 0   rc=  1.452513   el= -0.477183   Ekb= -1.957529   kbcos= -0.361582
GHOST: No ghost state for L =  1
   l= 1   rc=  1.730774   el=  0.001076   Ekb= -0.628875   kbcos= -0.020986
GHOST: No ghost state for L =  2
   l= 2   rc=  2.011274   el=  0.002010   Ekb= -0.258614   kbcos= -0.002433

KBgen: Total number of  Kleinman-Bylander projectors:    9
atom: -------------------------------------------------------------------------

atom: SANKEY-TYPE ORBITALS:
atom: Selected multiple-zeta basis: split     

SPLIT: Orbitals with angular momentum L= 0

SPLIT: Basis orbitals for state 1s

SPLIT: PAO cut-off radius determined from an
SPLIT: energy shift=  0.003675 Ry

   izeta = 1
                 lambda =    1.000000
                     rc =    6.047169
                 energy =   -0.473707
                kinetic =    0.890783
    potential(screened) =   -1.364491
       potential(ionic) =   -1.884975

   izeta = 2
                 rmatch =    4.052721
              splitnorm =    0.150000
                 energy =   -0.382777
                kinetic =    1.427749
    potential(screened) =   -1.810526
       potential(ionic) =   -2.357421

POLgen: Perturbative polarization orbital with L=  1

POLgen: Polarization orbital for state 1s

   izeta = 1
                     rc =    6.047169
                 energy =    0.568234
                kinetic =    1.185253
    potential(screened) =   -0.617020
       potential(ionic) =   -1.087179
atom: Total number of Sankey-type orbitals:  5

atm_pop: Valence configuration (for local Pseudopot. screening):
 1s( 1.00)                                                            
Vna: chval, zval:    1.00000   1.00000

Vna:  Cut-off radius for the neutral-atom potential:   6.047169

atom: _________________________________________________________________________

<basis_specs>
===============================================================================
Fe2                  Z=  26    Mass=  55.850        Charge= 0.17977+309
Lmxo=2 Lmxkb= 3    BasisType=split      Semic=F
L=0  Nsemic=0  Cnfigmx=4
          i=1  nzeta=2  polorb=1  (4s)
            splnorm:   0.15000    
               vcte:    0.0000    
               rinn:    0.0000    
               qcoe:    0.0000    
               qyuk:    0.0000    
               qwid:   0.10000E-01
                rcs:    0.0000      0.0000    
            lambdas:    1.0000      1.0000    
L=1  Nsemic=0  Cnfigmx=4
L=2  Nsemic=0  Cnfigmx=3
          i=1  nzeta=2  polorb=0  (3d)
            splnorm:   0.15000    
               vcte:    0.0000    
               rinn:    0.0000    
               qcoe:    0.0000    
               qyuk:    0.0000    
               qwid:   0.10000E-01
                rcs:    0.0000      0.0000    
            lambdas:    1.0000      1.0000    
-------------------------------------------------------------------------------
L=0  Nkbl=1  erefs: 0.17977+309
L=1  Nkbl=2  erefs: 0.17977+309 0.17977+309
L=2  Nkbl=1  erefs: 0.17977+309
L=3  Nkbl=1  erefs: 0.17977+309
===============================================================================
</basis_specs>

atom: Called for Fe2                   (Z =  26)

read_vps: Pseudopotential generation method:
read_vps: ATM4.2.7  Troullier-Martins                       
Valence charge for ps generation:    6.00000

read_vps: Pseudopotential includes a core correction:
read_vps: Pseudo-core for xc-correction

atom: Pseudopotential generated from an ionic configuration
atom: with net charge 2.00

xc_check: Exchange-correlation functional:
xc_check: GGA Perdew, Burke & Ernzerhof 1996
V l=0 = -2*Zval/r beyond r=  2.7302
V l=1 = -2*Zval/r beyond r=  2.7302
V l=2 = -2*Zval/r beyond r=  2.7302
V l=3 = -2*Zval/r beyond r=  2.7302
All V_l potentials equal beyond r=  1.9726
This should be close to max(r_c) in ps generation
All pots = -2*Zval/r beyond r=  2.7302
Using large-core scheme for Vlocal

atom: Estimated core radius    2.73018
atom: Maximum radius for 4*pi*r*r*local-pseudopot. charge    3.01733
atom: Maximum radius for r*vlocal+2*Zval:    2.76453

KBgen: Kleinman-Bylander projectors: 
GHOST: No ghost state for L =  0
   l= 0   rc=  2.047986   el= -1.482689   Ekb=  4.473766   kbcos=  0.320130
   l= 1   rc=  2.047986   el= -1.050151   Ekb=  2.808993   kbcos=  0.303763
   l= 1   rc=  2.047986   el= -0.425295   Ekb=  1.996072   kbcos=  0.016093
GHOST: No ghost state for L =  2
   l= 2   rc=  2.022544   el= -1.890984   Ekb=-12.596121   kbcos= -0.696221
GHOST: No ghost state for L =  3
   l= 3   rc=  2.047986   el= -0.275065   Ekb= -1.954499   kbcos= -0.028175
KBgen: More than one KB projector for some l shell(s)
KBgen: ghost-state analysis will not be performed

KBgen: Total number of  Kleinman-Bylander projectors:   19
atom: -------------------------------------------------------------------------

atom: SANKEY-TYPE ORBITALS:
atom: Selected multiple-zeta basis: split     

atom: basis set generated from the ionic configuration used
atom: to generate the pseudopotential

SPLIT: Orbitals with angular momentum L= 0

SPLIT: Basis orbitals for state 4s

SPLIT: PAO cut-off radius determined from an
SPLIT: energy shift=  0.003675 Ry

   izeta = 1
                 lambda =    1.000000
                     rc =    6.308440
                 energy =   -1.479221
                kinetic =    0.442339
    potential(screened) =   -1.921560
       potential(ionic) =   -6.621686

   izeta = 2
                 rmatch =    5.037372
              splitnorm =    0.150000
                 energy =   -1.401872
                kinetic =    0.694761
    potential(screened) =   -2.096634
       potential(ionic) =   -7.083320

SPLIT: Orbitals with angular momentum L= 2

SPLIT: Basis orbitals for state 3d

SPLIT: PAO cut-off radius determined from an
SPLIT: energy shift=  0.003675 Ry

   izeta = 1
                 lambda =    1.000000
                     rc =    4.228642
                 energy =   -1.887728
                kinetic =    9.621385
    potential(screened) =  -11.509113
       potential(ionic) =  -19.015244

   izeta = 2
                 rmatch =    2.099834
              splitnorm =    0.150000
                 energy =   -1.426594
                kinetic =   13.244057
    potential(screened) =  -14.670651
       potential(ionic) =  -22.733758

POLgen: Perturbative polarization orbital with L=  1

POLgen: Polarization orbital for state 4s

   izeta = 1
                     rc =    6.308440
                 energy =   -1.063676
                kinetic =    0.818583
    potential(screened) =   -1.882259
       potential(ionic) =   -6.291436
atom: Total number of Sankey-type orbitals: 15

atm_pop: Valence configuration (for local Pseudopot. screening):
 4s( 2.00)                                                            
 4p( 0.00)                                                            
 3d( 6.00)                                                            
Vna: chval, zval:    8.00000   8.00000

Vna:  Cut-off radius for the neutral-atom potential:   6.308440
comcore: Pseudo-core radius Rcore=  3.685395

atom: _________________________________________________________________________

prinput: Basis input ----------------------------------------------------------

PAO.BasisType split     

%block ChemicalSpeciesLabel
    1    7 N                       # Species index, atomic number, species label
    2    6 C                       # Species index, atomic number, species label
    3    1 H                       # Species index, atomic number, species label
    4   26 Fe2                     # Species index, atomic number, species label
%endblock ChemicalSpeciesLabel

%block PAO.Basis                 # Define Basis set
N                     2                    # Species label, number of l-shells
 n=2   0   2                         # n, l, Nzeta 
   4.389      2.942   
   1.000      1.000   
 n=2   1   2 P   1                   # n, l, Nzeta, Polarization, NzetaPol
   5.496      3.092   
   1.000      1.000   
C                     2                    # Species label, number of l-shells
 n=2   0   2                         # n, l, Nzeta 
   4.994      3.475   
   1.000      1.000   
 n=2   1   2 P   1                   # n, l, Nzeta, Polarization, NzetaPol
   6.254      3.746   
   1.000      1.000   
H                     1                    # Species label, number of l-shells
 n=1   0   2 P   1                   # n, l, Nzeta, Polarization, NzetaPol
   6.047      4.053   
   1.000      1.000   
Fe2                   2   2.000            # Label, l-shells, ionic net charge
 n=4   0   2 P   1                   # n, l, Nzeta, Polarization, NzetaPol
   6.308      5.037   
   1.000      1.000   
 n=3   2   2                         # n, l, Nzeta 
   4.229      2.100   
   1.000      1.000   
%endblock PAO.Basis

prinput: ----------------------------------------------------------------------

coor:   Atomic-coordinates input format  =     Fractional

siesta: Atomic coordinates (Bohr) and species
siesta:     12.47098   8.22175  11.99473  1        1
siesta:     11.84486  12.03346   8.42303  1        2
siesta:     12.26285  12.02324  15.55262  1        3
siesta:     12.49215  15.83257  12.00456  1        4
siesta:     12.37816   6.61737   9.89600  2        5
siesta:     11.68378   9.94492   6.79022  2        6
siesta:     12.60385   6.61435  14.03220  2        7
siesta:     11.69850  14.12711   6.79538  2        8
siesta:     11.96408   7.41325   7.46540  2        9
siesta:     12.56371   3.99989  10.67151  2       10
siesta:     11.35731  10.73496   4.24285  2       11
siesta:     12.70211   3.99764  13.24709  2       12
siesta:     11.36664  13.34575   4.24608  2       13
siesta:     12.49606   7.41648  16.53554  2       14
siesta:     11.99509  16.65532   7.47681  2       15
siesta:     12.28575   9.90608  17.21682  2       16
siesta:     12.41136  17.44271   9.90974  2       17
siesta:     12.29399  14.13601  17.22234  2       18
siesta:     12.63051  17.43411  14.04629  2       19
siesta:     12.51571  16.62631  16.54750  2       20
siesta:     12.19667  10.73019  19.80686  2       21
siesta:     12.61042  20.05719  10.69211  2       22
siesta:     12.20147  13.30542  19.81025  2       23
siesta:     12.74422  20.05218  13.26795  2       24
siesta:     11.84083   6.00907   5.97954  3       25
siesta:     12.54519   2.40767   9.39645  3       26
siesta:     11.19062   9.47702   2.64567  3       27
siesta:     12.81916   2.40585  14.51648  3       28
siesta:     11.20898  14.60882   2.65206  3       29
siesta:     12.55044   6.00641  18.01822  3       30
siesta:     11.88199  18.06375   5.99421  3       31
siesta:     12.57537  18.03248  18.03369  3       32
siesta:     12.16999   9.46427  21.40610  3       33
siesta:     12.60273  21.65266   9.42104  3       34
siesta:     12.17953  14.56719  21.41285  3       35
siesta:     12.86790  21.64004  14.54165  3       36
siesta:     12.62675  12.02690  12.02716  4       37

siesta: System type = slab      

initatomlists: Number of atoms, orbitals, and projectors:     37   387   511

coxmol: Writing XMOL coordinates into file ip.xyz                                                              

siesta: ******************** Simulation parameters ****************************
siesta:
siesta: The following are some of the parameters of the simulation.
siesta: A complete list of the parameters used, including default values,
siesta: can be found in file out.fdf
siesta:
redata: Spin configuration                          = none
redata: Number of spin components                   = 1
redata: Time-Reversal Symmetry                      = T
redata: Spin spiral                                 = F
redata: Long output                                 =   F
redata: Number of Atomic Species                    =        4
redata: Charge density info will appear in .RHO file
redata: Write Mulliken Pop.                         = Atomic and Orbital charges
redata: Matel table size (NRTAB)                    =     1024
redata: Mesh Cutoff                                 =   370.0000 Ry
redata: Net charge of the system                    =     0.0000 |e|
redata: Min. number of SCF Iter                     =        0
redata: Max. number of SCF Iter                     =      300
redata: SCF convergence failure will abort job
redata: SCF mix quantity                            = Hamiltonian
redata: Mix DM or H after convergence               =   F
redata: Recompute H after scf cycle                 =   F
redata: Mix DM in first SCF step                    =   T
redata: Write Pulay info on disk                    =   F
redata: New DM Occupancy tolerance                  = 0.000000000001
redata: No kicks to SCF
redata: DM Mixing Weight for Kicks                  =     0.5000
redata: Require Harris convergence for SCF          =   F
redata: Harris energy tolerance for SCF             =     0.000100 eV
redata: Require DM convergence for SCF              =   T
redata: DM tolerance for SCF                        =     0.000010
redata: Require EDM convergence for SCF             =   F
redata: EDM tolerance for SCF                       =     0.001000 eV
redata: Require H convergence for SCF               =   T
redata: Hamiltonian tolerance for SCF               =     0.001000 eV
redata: Require (free) Energy convergence for SCF   =   F
redata: (free) Energy tolerance for SCF             =     0.000100 eV
redata: Using Saved Data (generic)                  =   T
redata: Use continuation files for DM               =   T
redata: Neglect nonoverlap interactions             =   F
redata: Method of Calculation                       = Diagonalization
redata: Electronic Temperature                      =   290.1109 K
redata: Fix the spin of the system                  =   F
redata: Max. number of TDED Iter                    =        1
redata: Number of TDED substeps                     =        3
redata: Dynamics option                             = CG coord. optimization
redata: Variable cell                               =   F
redata: Use continuation files for CG               =   T
redata: Max atomic displ per move                   =     0.1000 Ang
redata: Maximum number of optimization moves        =       50
redata: Force tolerance                             =     0.0400 eV/Ang
mix.SCF: Pulay mixing                            = Pulay
mix.SCF:    Variant                              = stable
mix.SCF:    History steps                        = 4
mix.SCF:    Linear mixing weight                 =     0.020000
mix.SCF:    Mixing weight                        =     0.020000
mix.SCF:    SVD condition                        = 0.1000E-07
redata: ***********************************************************************

%block SCF.Mixers
  Pulay
%endblock SCF.Mixers

%block SCF.Mixer.Pulay
  # Mixing method
  method pulay
  variant stable

  # Mixing options
  weight 0.0200
  weight.linear 0.0200
  history 4
%endblock SCF.Mixer.Pulay

DM_history_depth set to one: no extrapolation allowed by default for geometry relaxation
Size of DM history Fstack: 1
Total number of electrons:   120.000000
Total ionic charge:   120.000000
k-point displ. along   2 input, could be:     0.00    0.50
k-point displ. along   3 input, could be:     0.00    0.50
 Kpoints in:            4 . Kpoints trimmed:            4

siesta: k-point coordinates (Bohr**-1) and weights:
siesta:          1  0.000000E+00  0.000000E+00  0.000000E+00   0.250000E+00
siesta:          2  0.000000E+00  0.130581E+00  0.000000E+00   0.250000E+00
siesta:          3  0.000000E+00  0.000000E+00  0.130581E+00   0.250000E+00
siesta:          4  0.000000E+00  0.130581E+00  0.130581E+00   0.250000E+00

siesta: k-grid: Number of k-points =         4
siesta: k-points from Monkhorst-Pack grid
siesta: k-cutoff (effective) =     6.366 Ang
siesta: k-point supercell and displacements
siesta: k-grid:    1   0   0      0.000
siesta: k-grid:    0   2   0      0.000
siesta: k-grid:    0   0   2      0.000

diag: Algorithm                                     = D&C
diag: Used triangular part                          = Lower
diag: Absolute tolerance                            =  0.100E-15
diag: Orthogonalization factor                      =  0.100E-05
diag: Memory factor                                 =  1.0000
Using current reciprocal lattice vectors for BandLinesScale
Beware any cell changes by the end of the run
Using current reciprocal lattice vectors for BandLinesScale
Beware any cell changes by the end of the run

superc: Internal auxiliary supercell:     1 x     3 x     3  =       9
superc: Number of atoms, orbitals, and projectors:    333   3483   4599


ts: **************************************************************
ts: Save H and S matrices                           =    F
ts: Save DM and EDM matrices                        =    F
ts: Only save the overlap matrix S                  =    F
ts: **************************************************************

************************ Begin: TS CHECKS AND WARNINGS ************************
************************ End: TS CHECKS AND WARNINGS **************************


                     ====================================
                        Begin CG opt. move =      0
                     ====================================

outcoor: Atomic coordinates (fractional):                   
    0.51836038    0.34173974    0.49856496   1       1  N
    0.49233538    0.50017476    0.35010618   1       2  N
    0.50970918    0.49974984    0.64644957   1       3  N
    0.51924014    0.65808588    0.49897340   1       4  N
    0.51450217    0.27505326    0.41133052   2       5  C
    0.48564002    0.41336373    0.28223756   2       6  C
    0.52388305    0.27492756    0.58325291   2       7  C
    0.48625189    0.58719790    0.28245199   2       8  C
    0.49729091    0.30813414    0.31030166   2       9  C
    0.52221471    0.16625687    0.44356468   2      10  C
    0.47207022    0.44620192    0.17635527   2      11  C
    0.52796745    0.16616338    0.55061972   2      12  C
    0.47245824    0.55472028    0.17648956   2      13  C
    0.51940268    0.30826846    0.68730503   2      14  C
    0.49857986    0.69228375    0.31077608   2      15  C
    0.51066119    0.41174960    0.71562284   2      16  C
    0.51588219    0.72501195    0.41190156   2      17  C
    0.51100367    0.58756787    0.71585220   2      18  C
    0.52499133    0.72465455    0.58383882   2      19  C
    0.52021956    0.69107807    0.68780226   2      20  C
    0.50695848    0.44600397    0.82327872   2      21  C
    0.52415639    0.83368349    0.44442087   2      22  C
    0.50715798    0.55304408    0.82341933   2      23  C
    0.52971751    0.83347535    0.55148685   2      24  C
    0.49216807    0.24976894    0.24854162   3      25  H
    0.52144492    0.10007545    0.39056659   3      26  H
    0.46514159    0.39391547    0.10996804   3      27  H
    0.53283268    0.09999999    0.60338217   3      28  H
    0.46590504    0.60722035    0.11023355   3      29  H
    0.52166331    0.24965820    0.74893308   3      30  H
    0.49387881    0.75082570    0.24915117   3      31  H
    0.52269930    0.74952573    0.74957639   3      32  H
    0.50584942    0.39338526    0.88975155   3      33  H
    0.52383667    0.89999998    0.39158851   3      34  H
    0.50624609    0.60548997    0.89003193   3      35  H
    0.53485841    0.89947534    0.60442841   3      36  H
    0.52483505    0.49990222    0.49991283   4      37  Fe2

superc: Internal auxiliary supercell:     1 x     3 x     3  =       9
superc: Number of atoms, orbitals, and projectors:    333   3483   4599

outcell: Unit cell vectors (Ang):
       12.731213    0.000000    0.000000
        0.000000   12.731213    0.000000
        0.000000    0.000000   12.731213

outcell: Cell vector modules (Ang)   :   12.731213   12.731213   12.731213
outcell: Cell angles (23,13,12) (deg):     90.0000     90.0000     90.0000
outcell: Cell volume (Ang**3)        :   2063.5230
<dSpData1D:S at geom step 0
  <sparsity:sparsity for geom step 0
    nrows_g=387 nrows=387 sparsity=1.0883 nnzs=162989, refcount: 7>
  <dData1D:(new from dSpData1D) n=162989, refcount: 1>
refcount: 1>
new_DM -- step:     1
Initializing Density Matrix...

Attempting to read DM from file... Succeeded...
DM from file:
<dSpData2D:IO-DM: ip.DM
  <sparsity:IO-DM: ip.DM
    nrows_g=387 nrows=387 sparsity=1.0873 nnzs=162849, refcount: 1>
  <dData2D:(new from dSpData2D) n=162849 m=1, refcount: 1>
refcount: 1>
DM to be used:
<dSpData2D:Re-structured SpM
  <sparsity:sparsity for geom step 0
    nrows_g=387 nrows=387 sparsity=1.0883 nnzs=162989, refcount: 8>
  <dData2D:(new in restruct) n=162989 m=1, refcount: 1>
refcount: 1>
No. of atoms with KB's overlaping orbs in proc 0. Max # of overlaps:      53     275

InitMesh: MESH = 150 x 150 x 150 = 3375000
InitMesh: Mesh cutoff (required, used) =   370.000   383.658 Ry
New grid distribution [1]: sub = 2

stepf: Fermi-Dirac step function

siesta: Program's energy decomposition (eV):
siesta: Ebs     =     -1492.923325
siesta: Eions   =      6065.232289
siesta: Ena     =       701.455086
siesta: Ekin    =      3872.768336
siesta: Enl     =     -1848.304479
siesta: Eso     =         0.000000
siesta: Edftu   =         0.000000
siesta: DEna    =       -93.605215
siesta: DUscf   =        15.594391
siesta: DUext   =         0.000000
siesta: Ex      =     -1602.706063
siesta: Ec      =      -143.851378
siesta: Exc     =     -1746.557441
siesta: eta*DQ  =         0.000000
siesta: Emadel  =         0.000000
siesta: Emeta   =         0.000000
siesta: Emolmec =         0.000000
siesta: Ekinion =         0.000000
siesta: Eharris =     -5162.946530
siesta: Etot    =     -5163.881610
siesta: FreeEng =     -5163.953092

        iscf     Eharris(eV)        E_KS(eV)     FreeEng(eV)     dDmax    Ef(eV) dHmax(eV)
   scf:    1    -5162.946530    -5163.881610    -5163.953092  0.333165 -4.509796  2.015289
timer: Routine,Calls,Time,% = IterSCF        1       9.853   8.94
   scf:    2    -5028.655890    -5119.459687    -5119.459983  1.540474 -3.379540 44.206793
   scf:    3    -5165.962047    -5164.039497    -5164.127552  1.358302 -4.468950  0.324853
   scf:    4    -5164.054657    -5164.047896    -5164.137215  0.031567 -4.474925  0.236023
   scf:    5    -5163.966369    -5164.033919    -5164.127823  0.208869 -4.486883  0.208689
   scf:    6    -5164.009552    -5164.022293    -5164.116094  0.031926 -4.489235  0.273239
   scf:    7    -5164.064337    -5164.058420    -5164.150654  0.164232 -4.478954  0.038665
   scf:    8    -5164.058696    -5164.058575    -5164.150683  0.005107 -4.478074  0.028486
   scf:    9    -5164.058796    -5164.058716    -5164.150725  0.003606 -4.475286  0.021996
   scf:   10    -5164.058730    -5164.058729    -5164.150773  0.002655 -4.475550  0.017311
   scf:   11    -5164.058883    -5164.058812    -5164.150805  0.003427 -4.475113  0.016028
   scf:   12    -5164.058899    -5164.058857    -5164.150828  0.001002 -4.474489  0.016969
   scf:   13    -5164.058676    -5164.058785    -5164.150888  0.004452 -4.473752  0.008604
   scf:   14    -5164.058754    -5164.058770    -5164.150891  0.000777 -4.473583  0.006446
   scf:   15    -5164.058752    -5164.058761    -5164.150895  0.000675 -4.473096  0.004420
   scf:   16    -5164.058785    -5164.058774    -5164.150897  0.000555 -4.472918  0.003652
   scf:   17    -5164.058778    -5164.058776    -5164.150898  0.000324 -4.472793  0.003088
   scf:   18    -5164.058749    -5164.058763    -5164.150899  0.000477 -4.472715  0.002597
   scf:   19    -5164.058753    -5164.058758    -5164.150900  0.000255 -4.472595  0.002395
   scf:   20    -5164.058768    -5164.058763    -5164.150900  0.000160 -4.472545  0.002313
   scf:   21    -5164.058800    -5164.058782    -5164.150901  0.000938 -4.472501  0.001413
   scf:   22    -5164.058781    -5164.058781    -5164.150901  0.000096 -4.472511  0.001336
   scf:   23    -5164.058761    -5164.058771    -5164.150902  0.000326 -4.472558  0.000994
   scf:   24    -5164.058771    -5164.058771    -5164.150902  0.000051 -4.472558  0.000818
